 vasp.5.4.4.18Apr17-6-g9f103f2a35 (build May 24 2018 15:12:59) complex          
  
 executed on             LinuxIFC date 2021.02.16  09:52:49
 running on   80 total cores
 distrk:  each k-point on   80 cores,    1 groups
 distr:  one band on NCORES_PER_BAND=  20 cores,    4 groups


--------------------------------------------------------------------------------------------------------


 INCAR:
 POTCAR:    PAW_PBE Mg 13Apr2007                  
 POTCAR:    PAW_PBE Sb 06Sep2000                  

 ----------------------------------------------------------------------------- 
|                                                                             |
|           W    W    AA    RRRRR   N    N  II  N    N   GGGG   !!!           |
|           W    W   A  A   R    R  NN   N  II  NN   N  G    G  !!!           |
|           W    W  A    A  R    R  N N  N  II  N N  N  G       !!!           |
|           W WW W  AAAAAA  RRRRR   N  N N  II  N  N N  G  GGG   !            |
|           WW  WW  A    A  R   R   N   NN  II  N   NN  G    G                |
|           W    W  A    A  R    R  N    N  II  N    N   GGGG   !!!           |
|                                                                             |
|      For optimal performance we recommend to set                            |
|        NCORE= 4 - approx SQRT( number of cores)                             |
|      NCORE specifies how many cores store one orbital (NPAR=cpu/NCORE).     |
|      This setting can  greatly improve the performance of VASP for DFT.     |
|      The default,   NCORE=1            might be grossly inefficient         |
|      on modern multi-core architectures or massively parallel machines.     |
|      Do your own testing !!!!                                               |
|      Unfortunately you need to use the default for GW and RPA calculations. |
|      (for HF NCORE is supported but not extensively tested yet)             |
|                                                                             |
 ----------------------------------------------------------------------------- 

 POTCAR:    PAW_PBE Mg 13Apr2007                  
   VRHFIN =Mg: s2p0                                                             
   LEXCH  = PE                                                                  
   EATOM  =    23.0369 eV,    1.6932 Ry                                         
                                                                                
   TITEL  = PAW_PBE Mg 13Apr2007                                                
   LULTRA =        F    use ultrasoft PP ?                                      
   IUNSCR =        1    unscreen: 0-lin 1-nonlin 2-no                           
   RPACOR =    1.500    partial core radius                                     
   POMASS =   24.305; ZVAL   =    2.000    mass and valenz                      
   RCORE  =    2.000    outmost cutoff radius                                   
   RWIGS  =    2.880; RWIGS  =    1.524    wigner-seitz radius (au A)           
   ENMAX  =  126.143; ENMIN  =   94.607 eV                                      
   RCLOC  =    1.506    cutoff for local pot                                    
   LCOR   =        T    correct aug charges                                     
   LPAW   =        T    paw PP                                                  
   EAUG   =  454.734                                                            
   DEXC   =    0.000                                                            
   RMAX   =    2.045    core radius for proj-oper                               
   RAUG   =    1.300    factor for augmentation sphere                          
   RDEP   =    2.025    radius for radial grids                                 
   RDEPT  =    1.942    core radius for aug-charge                              
                                                                                
   Atomic configuration                                                         
    6 entries                                                                   
     n  l   j            E        occ.                                          
     1  0  0.50     -1259.6230   2.0000                                         
     2  0  0.50       -79.8442   2.0000                                         
     2  1  1.50       -46.6121   6.0000                                         
     3  0  0.50        -4.7055   2.0000                                         
     3  1  0.50        -1.3660   0.0000                                         
     3  2  1.50        -1.3606   0.0000                                         
   Description                                                                  
     l       E           TYP  RCUT    TYP  RCUT                                 
     0     -4.7054661     23  2.000                                             
     0     27.2116520     23  2.000                                             
     1      1.3605826     23  2.000                                             
     1     27.2116520     23  2.000                                             
     2     -1.3605826     23  2.000                                             
  local pseudopotential read in
  partial core-charges read in
  partial kinetic energy density read in
  atomic valenz-charges read in
  non local Contribution for L=           0  read in
    real space projection operators read in
  non local Contribution for L=           0  read in
    real space projection operators read in
  non local Contribution for L=           1  read in
    real space projection operators read in
  non local Contribution for L=           1  read in
    real space projection operators read in
  non local Contribution for L=           2  read in
    real space projection operators read in
    PAW grid and wavefunctions read in
 
   number of l-projection  operators is LMAX  =           5
   number of lm-projection operators is LMMAX =          13
 
 POTCAR:    PAW_PBE Sb 06Sep2000                  
   VRHFIN =Sb: s2p3                                                             
   LEXCH  = PE                                                                  
   EATOM  =   149.9515 eV,   11.0211 Ry                                         
                                                                                
   TITEL  = PAW_PBE Sb 06Sep2000                                                
   LULTRA =        F    use ultrasoft PP ?                                      
   IUNSCR =        1    unscreen: 0-lin 1-nonlin 2-no                           
   RPACOR =    2.200    partial core radius                                     
   POMASS =  121.750; ZVAL   =    5.000    mass and valenz                      
   RCORE  =    2.300    outmost cutoff radius                                   
   RWIGS  =    2.980; RWIGS  =    1.577    wigner-seitz radius (au A)           
   ENMAX  =  172.069; ENMIN  =  129.052 eV                                      
   ICORE  =        3    local potential                                         
   LCOR   =        T    correct aug charges                                     
   LPAW   =        T    paw PP                                                  
   EAUG   =  380.513                                                            
   DEXC   =    0.000                                                            
   RMAX   =    2.346    core radius for proj-oper                               
   RAUG   =    1.300    factor for augmentation sphere                          
   RDEP   =    2.360    radius for radial grids                                 
   RDEPT  =    2.192    core radius for aug-charge                              
                                                                                
   Atomic configuration                                                         
   13 entries                                                                   
     n  l   j            E        occ.                                          
     1  0  0.50    -30298.2797   2.0000                                         
     2  0  0.50     -4610.2252   2.0000                                         
     2  1  1.50     -4138.3407   6.0000                                         
     3  0  0.50      -903.8815   2.0000                                         
     3  1  1.50      -750.1337   6.0000                                         
     3  2  2.50      -515.7092  10.0000                                         
     4  0  0.50      -148.8034   2.0000                                         
     4  1  1.50      -101.7581   6.0000                                         
     4  2  2.50       -33.5048  10.0000                                         
     5  0  0.50       -12.8298   2.0000                                         
     5  1  0.50        -4.8276   3.0000                                         
     5  2  1.50        -4.0817   0.0000                                         
     4  3  2.50        -4.0817   0.0000                                         
   Description                                                                  
     l       E           TYP  RCUT    TYP  RCUT                                 
     0    -12.8297861     23  2.300                                             
     0     13.6058260     23  2.300                                             
     1     -4.8275512     23  2.300                                             
     1     -0.7245443     23  2.300                                             
     2     -4.0817478     23  2.300                                             
     3     -1.3605826     23  2.300                                             
  local pseudopotential read in
  partial core-charges read in
  partial kinetic energy density read in
  atomic valenz-charges read in
  non local Contribution for L=           0  read in
    real space projection operators read in
  non local Contribution for L=           0  read in
    real space projection operators read in
  non local Contribution for L=           1  read in
    real space projection operators read in
  non local Contribution for L=           1  read in
    real space projection operators read in
  non local Contribution for L=           2  read in
    real space projection operators read in
    PAW grid and wavefunctions read in
 
   number of l-projection  operators is LMAX  =           5
   number of lm-projection operators is LMMAX =          13
 
  PAW_PBE Mg 13Apr2007                  :
 energy of atom  1       EATOM=  -23.0369
 kinetic energy error for atom=    0.0001 (will be added to EATOM!!)
  PAW_PBE Sb 06Sep2000                  :
 energy of atom  2       EATOM= -149.9515
 kinetic energy error for atom=    0.0008 (will be added to EATOM!!)
 
 
 POSCAR: Mg3Sb2                                  
  positions in direct lattice
  No initial velocities read in
 exchange correlation table for  LEXCH =        8
   RHO(1)=    0.500       N(1)  =     2000
   RHO(2)=  100.500       N(2)  =     4000
 


--------------------------------------------------------------------------------------------------------


 ion  position               nearest neighbor table
   1  0.000  0.000  0.000-   5 3.11   5 3.11   5 3.11   4 3.11   4 3.11   4 3.11
   2  0.333  0.667  0.634-   5 2.82   5 2.82   5 2.82   4 2.93   3 3.27   3 3.27   3 3.27
   3  0.667  0.333  0.366-   4 2.82   4 2.82   4 2.82   5 2.93   2 3.27   2 3.27   2 3.27
   4  0.333  0.667  0.228-   3 2.82   3 2.82   3 2.82   2 2.93   1 3.11   1 3.11   1 3.11
   5  0.667  0.333  0.772-   2 2.82   2 2.82   2 2.82   3 2.93   1 3.11   1 3.11   1 3.11
 
  LATTYP: Found a hexagonal cell.
 ALAT       =     4.5679998398
 C/A-ratio  =     1.5825307236
  
  Lattice vectors:
  
 A1 = (   4.5679998398,   0.0000000000,   0.0000000000)
 A2 = (  -2.2839999199,   3.9560039057,   0.0000000000)
 A3 = (   0.0000000000,   0.0000000000,   7.2290000916)


Analysis of symmetry for initial positions (statically):
=====================================================================
 Subroutine PRICEL returns:
 Original cell was already a primitive cell.
 

 Routine SETGRP: Setting up the symmetry group for a 
 hexagonal supercell.


 Subroutine GETGRP returns: Found 12 space group operations
 (whereof 12 operations were pure point group operations)
 out of a pool of 24 trial point group operations.


The static configuration has the point symmetry D_3d.


Analysis of symmetry for dynamics (positions and initial velocities):
=====================================================================
 Subroutine PRICEL returns:
 Original cell was already a primitive cell.
 

 Routine SETGRP: Setting up the symmetry group for a 
 hexagonal supercell.


 Subroutine GETGRP returns: Found 12 space group operations
 (whereof 12 operations were pure point group operations)
 out of a pool of 24 trial point group operations.


The dynamic configuration has the point symmetry D_3d.


 Subroutine INISYM returns: Found 12 space group operations
 (whereof 12 operations are pure point group operations),
 and found     1 'primitive' translations

 
 
 KPOINTS: K-Mesh Generated with KP-Resolved Value 

Automatic generation of k-mesh.
Space group operators:
 irot       det(A)        alpha          n_x          n_y          n_z        tau_x        tau_y        tau_z
    1     1.000000     0.000000     1.000000     0.000000     0.000000     0.000000     0.000000     0.000000
    2    -1.000000     0.000000     1.000000     0.000000     0.000000     0.000000     0.000000     0.000000
    3     1.000000   120.000000     0.000000     0.000000    -1.000000     0.000000     0.000000     0.000000
    4    -1.000000   120.000000     0.000000     0.000000    -1.000000     0.000000     0.000000     0.000000
    5     1.000000   120.000000     0.000000     0.000000     1.000000     0.000000     0.000000     0.000000
    6    -1.000000   120.000000     0.000000     0.000000     1.000000     0.000000     0.000000     0.000000
    7     1.000000   180.000000     1.000000     0.000000     0.000000     0.000000     0.000000     0.000000
    8    -1.000000   180.000000     1.000000     0.000000     0.000000     0.000000     0.000000     0.000000
    9     1.000000   180.000000     0.500000    -0.866025     0.000000     0.000000     0.000000     0.000000
   10    -1.000000   180.000000     0.500000    -0.866025     0.000000     0.000000     0.000000     0.000000
   11     1.000000   180.000000    -0.500000    -0.866025     0.000000     0.000000     0.000000     0.000000
   12    -1.000000   180.000000    -0.500000    -0.866025     0.000000     0.000000     0.000000     0.000000
 
 Subroutine IBZKPT returns following result:
 ===========================================
 
 Found     40 irreducible k-points:
 
 Following reciprocal coordinates:
            Coordinates               Weight
  0.000000  0.000000  0.000000      1.000000
  0.125000  0.000000  0.000000      6.000000
  0.250000  0.000000  0.000000      6.000000
  0.375000 -0.000000  0.000000      6.000000
  0.500000  0.000000  0.000000      3.000000
  0.125000  0.125000  0.000000      6.000000
  0.250000  0.125000  0.000000     12.000000
  0.375000  0.125000  0.000000     12.000000
  0.250000  0.250000  0.000000      6.000000
  0.375000  0.250000  0.000000      6.000000
  0.000000  0.000000  0.200000      2.000000
  0.125000  0.000000  0.200000      6.000000
  0.250000  0.000000  0.200000      6.000000
  0.375000 -0.000000  0.200000      6.000000
  0.500000  0.000000  0.200000      6.000000
 -0.375000  0.000000  0.200000      6.000000
 -0.250000 -0.000000  0.200000      6.000000
 -0.125000 -0.000000  0.200000      6.000000
  0.125000  0.125000  0.200000     12.000000
  0.250000  0.125000  0.200000     12.000000
  0.375000  0.125000  0.200000     12.000000
  0.500000  0.125000  0.200000     12.000000
 -0.375000  0.125000  0.200000     12.000000
  0.250000  0.250000  0.200000     12.000000
  0.375000  0.250000  0.200000     12.000000
  0.000000  0.000000  0.400000      2.000000
  0.125000  0.000000  0.400000      6.000000
  0.250000  0.000000  0.400000      6.000000
  0.375000 -0.000000  0.400000      6.000000
  0.500000  0.000000  0.400000      6.000000
 -0.375000  0.000000  0.400000      6.000000
 -0.250000 -0.000000  0.400000      6.000000
 -0.125000 -0.000000  0.400000      6.000000
  0.125000  0.125000  0.400000     12.000000
  0.250000  0.125000  0.400000     12.000000
  0.375000  0.125000  0.400000     12.000000
  0.500000  0.125000  0.400000     12.000000
 -0.375000  0.125000  0.400000     12.000000
  0.250000  0.250000  0.400000     12.000000
  0.375000  0.250000  0.400000     12.000000
 
 Following cartesian coordinates:
            Coordinates               Weight
  0.000000  0.000000  0.000000      1.000000
  0.027364  0.015799  0.000000      6.000000
  0.054729  0.031598  0.000000      6.000000
  0.082093  0.047396  0.000000      6.000000
  0.109457  0.063195  0.000000      3.000000
  0.027364  0.047396  0.000000      6.000000
  0.054729  0.063195  0.000000     12.000000
  0.082093  0.078994  0.000000     12.000000
  0.054729  0.094793  0.000000      6.000000
  0.082093  0.110591  0.000000      6.000000
  0.000000  0.000000  0.027666      2.000000
  0.027364  0.015799  0.027666      6.000000
  0.054729  0.031598  0.027666      6.000000
  0.082093  0.047396  0.027666      6.000000
  0.109457  0.063195  0.027666      6.000000
 -0.082093 -0.047396  0.027666      6.000000
 -0.054729 -0.031598  0.027666      6.000000
 -0.027364 -0.015799  0.027666      6.000000
  0.027364  0.047396  0.027666     12.000000
  0.054729  0.063195  0.027666     12.000000
  0.082093  0.078994  0.027666     12.000000
  0.109457  0.094793  0.027666     12.000000
 -0.082093 -0.015799  0.027666     12.000000
  0.054729  0.094793  0.027666     12.000000
  0.082093  0.110591  0.027666     12.000000
  0.000000  0.000000  0.055333      2.000000
  0.027364  0.015799  0.055333      6.000000
  0.054729  0.031598  0.055333      6.000000
  0.082093  0.047396  0.055333      6.000000
  0.109457  0.063195  0.055333      6.000000
 -0.082093 -0.047396  0.055333      6.000000
 -0.054729 -0.031598  0.055333      6.000000
 -0.027364 -0.015799  0.055333      6.000000
  0.027364  0.047396  0.055333     12.000000
  0.054729  0.063195  0.055333     12.000000
  0.082093  0.078994  0.055333     12.000000
  0.109457  0.094793  0.055333     12.000000
 -0.082093 -0.015799  0.055333     12.000000
  0.054729  0.094793  0.055333     12.000000
  0.082093  0.110591  0.055333     12.000000
 


--------------------------------------------------------------------------------------------------------




 Dimension of arrays:
   k-points           NKPTS =     40   k-points in BZ     NKDIM =     40   number of bands    NBANDS=     12
   number of dos      NEDOS =    301   number of ions     NIONS =      5
   non local maximal  LDIM  =      5   non local SUM 2l+1 LMDIM =     13
   total plane-waves  NPLWV =  20736
   max r-space proj   IRMAX =      1   max aug-charges    IRDMAX=   9008
   dimension x,y,z NGX =    24 NGY =   24 NGZ =   36
   dimension x,y,z NGXF=    48 NGYF=   48 NGZF=   72
   support grid    NGXF=    48 NGYF=   48 NGZF=   72
   ions per type =               3   2
   NGX,Y,Z   is equivalent  to a cutoff of   8.73,  8.73,  8.28 a.u.
   NGXF,Y,Z  is equivalent  to a cutoff of  17.47, 17.47, 16.56 a.u.

 SYSTEM =  unknown system                          
 POSCAR =  Mg3Sb2                                  

 Startparameter for this run:
   NWRITE =      2    write-flag & timer
   PREC   = normal    normal or accurate (medium, high low for compatibility)
   ISTART =      0    job   : 0-new  1-cont  2-samecut
   ICHARG =      2    charge: 1-file 2-atom 10-const
   ISPIN  =      1    spin polarized calculation?
   LNONCOLLINEAR =      F non collinear calculations
   LSORBIT =      F    spin-orbit coupling
   INIWAV =      1    electr: 0-lowe 1-rand  2-diag
   LASPH  =      F    aspherical Exc in radial PAW
   METAGGA=      F    non-selfconsistent MetaGGA calc.

 Electronic Relaxation 1
   ENCUT  =  400.0 eV  29.40 Ry    5.42 a.u.   7.45  7.45 11.79*2*pi/ulx,y,z
   ENINI  =  400.0     initial cutoff
   ENAUG  =  454.7 eV  augmentation charge cutoff
   NELM   =     60;   NELMIN=  2; NELMDL= -5     # of ELM steps 
   EDIFF  = 0.1E-04   stopping-criterion for ELM
   LREAL  =      F    real-space projection
   NLSPLINE    = F    spline interpolate recip. space projectors
   LCOMPAT=      F    compatible to vasp.4.4
   GGA_COMPAT  = T    GGA compatible to vasp.4.4-vasp.4.6
   LMAXPAW     = -100 max onsite density
   LMAXMIX     =    2 max onsite mixed and CHGCAR
   VOSKOWN=      0    Vosko Wilk Nusair interpolation
   ROPT   =    0.00000   0.00000
 Ionic relaxation
   EDIFFG = -.5E-02   stopping-criterion for IOM
   NSW    =    300    number of steps for IOM
   NBLOCK =      1;   KBLOCK =    300    inner block; outer block 
   IBRION =      2    ionic relax: 0-MD 1-quasi-New 2-CG
   NFREE  =      1    steps in history (QN), initial steepest desc. (CG)
   ISIF   =      3    stress and relaxation
   IWAVPR =     11    prediction:  0-non 1-charg 2-wave 3-comb
   ISYM   =      2    0-nonsym 1-usesym 2-fastsym
   LCORR  =      T    Harris-Foulkes like correction to forces

   POTIM  = 0.5000    time-step for ionic-motion
   TEIN   =    0.0    initial temperature
   TEBEG  =    0.0;   TEEND  =   0.0 temperature during run
   SMASS  =  -3.00    Nose mass-parameter (am)
   estimated Nose-frequenzy (Omega)   =  0.10E-29 period in steps =****** mass=  -0.477E-27a.u.
   SCALEE = 1.0000    scale energy and forces
   NPACO  =    256;   APACO  = 16.0  distance and # of slots for P.C.
   PSTRESS=    0.0 pullay stress

  Mass of Ions in am
   POMASS =  24.30121.75
  Ionic Valenz
   ZVAL   =   2.00  5.00
  Atomic Wigner-Seitz radii
   RWIGS  =  -1.00 -1.00
  virtual crystal weights 
   VCA    =   1.00  1.00
   NELECT =      16.0000    total number of electrons
   NUPDOWN=      -1.0000    fix difference up-down

 DOS related values:
   EMIN   =  10.00;   EMAX   =-10.00  energy-range for DOS
   EFERMI =   0.00
   ISMEAR =     0;   SIGMA  =   0.05  broadening in eV -4-tet -1-fermi 0-gaus

 Electronic relaxation 2 (details)
   IALGO  =     38    algorithm
   LDIAG  =      T    sub-space diagonalisation (order eigenvalues)
   LSUBROT=      F    optimize rotation matrix (better conditioning)
   TURBO    =      0    0=normal 1=particle mesh
   IRESTART =      0    0=no restart 2=restart with 2 vectors
   NREBOOT  =      0    no. of reboots
   NMIN     =      0    reboot dimension
   EREF     =   0.00    reference energy to select bands
   IMIX   =      4    mixing-type and parameters
     AMIX     =   0.40;   BMIX     =  1.00
     AMIX_MAG =   1.60;   BMIX_MAG =  1.00
     AMIN     =   0.10
     WC   =   100.;   INIMIX=   1;  MIXPRE=   1;  MAXMIX= -45

 Intra band minimization:
   WEIMIN = 0.0010     energy-eigenvalue tresh-hold
   EBREAK =  0.21E-06  absolut break condition
   DEPER  =   0.30     relativ break condition  

   TIME   =   0.40     timestep for ELM

  volume/ion in A,a.u.               =      26.13       176.31
  Fermi-wavevector in a.u.,A,eV,Ry     =   0.813007  1.536361  8.993192  0.660981
  Thomas-Fermi vector in A             =   1.922654
 
 Write flags
   LWAVE        =      F    write WAVECAR
   LDOWNSAMPLE  =      F    k-point downsampling of WAVECAR
   LCHARG       =      F    write CHGCAR
   LVTOT        =      F    write LOCPOT, total local potential
   LVHAR        =      F    write LOCPOT, Hartree potential only
   LELF         =      F    write electronic localiz. function (ELF)
   LORBIT       =      0    0 simple, 1 ext, 2 COOP (PROOUT), +10 PAW based schemes


 Dipole corrections
   LMONO  =      F    monopole corrections only (constant potential shift)
   LDIPOL =      F    correct potential (dipole corrections)
   IDIPOL =      0    1-x, 2-y, 3-z, 4-all directions 
   EPSILON=  1.0000000 bulk dielectric constant

 Exchange correlation treatment:
   GGA     =    --    GGA type
   LEXCH   =     8    internal setting for exchange type
   VOSKOWN=      0    Vosko Wilk Nusair interpolation
   LHFCALC =     F    Hartree Fock is set to
   LHFONE  =     F    Hartree Fock one center treatment
   AEXX    =    0.0000 exact exchange contribution

 Linear response parameters
   LEPSILON=     F    determine dielectric tensor
   LRPA    =     F    only Hartree local field effects (RPA)
   LNABLA  =     F    use nabla operator in PAW spheres
   LVEL    =     F    velocity operator in full k-point grid
   LINTERFAST=   F  fast interpolation
   KINTER  =     0    interpolate to denser k-point grid
   CSHIFT  =0.1000    complex shift for real part using Kramers Kronig
   OMEGAMAX=  -1.0    maximum frequency
   DEG_THRESHOLD= 0.2000000E-02 threshold for treating states as degnerate
   RTIME   =   -0.100 relaxation time in fs
  (WPLASMAI=    0.000 imaginary part of plasma frequency in eV, 0.658/RTIME)
   DFIELD  = 0.0000000 0.0000000 0.0000000 field for delta impulse in time
 
 Orbital magnetization related:
   ORBITALMAG=     F  switch on orbital magnetization
   LCHIMAG   =     F  perturbation theory with respect to B field
   DQ        =  0.001000  dq finite difference perturbation B field
   LLRAUG    =     F  two centre corrections for induced B field



--------------------------------------------------------------------------------------------------------


 conjugate gradient relaxation of ions
 charge density and potential will be updated during run
 non-spin polarized calculation
 Variant of blocked Davidson
 Davidson routine will perform the subspace rotation
 perform sub-space diagonalisation
    after iterative eigenvector-optimisation
 modified Broyden-mixing scheme, WC =      100.0
 initial mixing is a Kerker type mixing with AMIX =  0.4000 and BMIX =      1.0000
 Hartree-type preconditioning will be used
 using additional bands            4
 reciprocal scheme for non local part
 use partial core corrections
 calculate Harris-corrections to forces 
   (improved forces if not selfconsistent)
 use gradient corrections 
 use of overlap-Matrix (Vanderbilt PP)
 Gauss-broadening in eV      SIGMA  =   0.05


--------------------------------------------------------------------------------------------------------


  energy-cutoff  :      400.00
  volume of cell :      130.64
      direct lattice vectors                 reciprocal lattice vectors
     4.567999840  0.000000000  0.000000000     0.218914193  0.126390168  0.000000000
    -2.283999920  3.956003906  0.000000000     0.000000000  0.252780337  0.000000000
     0.000000000  0.000000000  7.229000092     0.000000000  0.000000000  0.138331718

  length of vectors
     4.567999840  4.567999840  7.229000092     0.252780337  0.252780337  0.138331718


 
 k-points in units of 2pi/SCALE and weight: K-Mesh Generated with KP-Resolved Value 
   0.00000000  0.00000000  0.00000000       0.003
   0.02736427  0.01579877  0.00000000       0.019
   0.05472855  0.03159754  0.00000000       0.019
   0.08209282  0.04739631  0.00000000       0.019
   0.10945710  0.06319508  0.00000000       0.009
   0.02736427  0.04739631  0.00000000       0.019
   0.05472855  0.06319508  0.00000000       0.037
   0.08209282  0.07899386  0.00000000       0.037
   0.05472855  0.09479263  0.00000000       0.019
   0.08209282  0.11059140  0.00000000       0.019
   0.00000000  0.00000000  0.02766634       0.006
   0.02736427  0.01579877  0.02766634       0.019
   0.05472855  0.03159754  0.02766634       0.019
   0.08209282  0.04739631  0.02766634       0.019
   0.10945710  0.06319508  0.02766634       0.019
  -0.08209282 -0.04739631  0.02766634       0.019
  -0.05472855 -0.03159754  0.02766634       0.019
  -0.02736427 -0.01579877  0.02766634       0.019
   0.02736427  0.04739631  0.02766634       0.037
   0.05472855  0.06319508  0.02766634       0.037
   0.08209282  0.07899386  0.02766634       0.037
   0.10945710  0.09479263  0.02766634       0.037
  -0.08209282 -0.01579877  0.02766634       0.037
   0.05472855  0.09479263  0.02766634       0.037
   0.08209282  0.11059140  0.02766634       0.037
   0.00000000  0.00000000  0.05533269       0.006
   0.02736427  0.01579877  0.05533269       0.019
   0.05472855  0.03159754  0.05533269       0.019
   0.08209282  0.04739631  0.05533269       0.019
   0.10945710  0.06319508  0.05533269       0.019
  -0.08209282 -0.04739631  0.05533269       0.019
  -0.05472855 -0.03159754  0.05533269       0.019
  -0.02736427 -0.01579877  0.05533269       0.019
   0.02736427  0.04739631  0.05533269       0.037
   0.05472855  0.06319508  0.05533269       0.037
   0.08209282  0.07899386  0.05533269       0.037
   0.10945710  0.09479263  0.05533269       0.037
  -0.08209282 -0.01579877  0.05533269       0.037
   0.05472855  0.09479263  0.05533269       0.037
   0.08209282  0.11059140  0.05533269       0.037
 
 k-points in reciprocal lattice and weights: K-Mesh Generated with KP-Resolved Value 
   0.00000000  0.00000000  0.00000000       0.003
   0.12500000  0.00000000  0.00000000       0.019
   0.25000000  0.00000000  0.00000000       0.019
   0.37500000 -0.00000000  0.00000000       0.019
   0.50000000  0.00000000  0.00000000       0.009
   0.12500000  0.12500000  0.00000000       0.019
   0.25000000  0.12500000  0.00000000       0.037
   0.37500000  0.12500000  0.00000000       0.037
   0.25000000  0.25000000  0.00000000       0.019
   0.37500000  0.25000000  0.00000000       0.019
   0.00000000  0.00000000  0.20000000       0.006
   0.12500000  0.00000000  0.20000000       0.019
   0.25000000  0.00000000  0.20000000       0.019
   0.37500000 -0.00000000  0.20000000       0.019
   0.50000000  0.00000000  0.20000000       0.019
  -0.37500000  0.00000000  0.20000000       0.019
  -0.25000000 -0.00000000  0.20000000       0.019
  -0.12500000 -0.00000000  0.20000000       0.019
   0.12500000  0.12500000  0.20000000       0.037
   0.25000000  0.12500000  0.20000000       0.037
   0.37500000  0.12500000  0.20000000       0.037
   0.50000000  0.12500000  0.20000000       0.037
  -0.37500000  0.12500000  0.20000000       0.037
   0.25000000  0.25000000  0.20000000       0.037
   0.37500000  0.25000000  0.20000000       0.037
   0.00000000  0.00000000  0.40000000       0.006
   0.12500000  0.00000000  0.40000000       0.019
   0.25000000  0.00000000  0.40000000       0.019
   0.37500000 -0.00000000  0.40000000       0.019
   0.50000000  0.00000000  0.40000000       0.019
  -0.37500000  0.00000000  0.40000000       0.019
  -0.25000000 -0.00000000  0.40000000       0.019
  -0.12500000 -0.00000000  0.40000000       0.019
   0.12500000  0.12500000  0.40000000       0.037
   0.25000000  0.12500000  0.40000000       0.037
   0.37500000  0.12500000  0.40000000       0.037
   0.50000000  0.12500000  0.40000000       0.037
  -0.37500000  0.12500000  0.40000000       0.037
   0.25000000  0.25000000  0.40000000       0.037
   0.37500000  0.25000000  0.40000000       0.037
 
 position of ions in fractional coordinates (direct lattice) 
   0.00000000  0.00000000  0.00000000
   0.33333334  0.66666669  0.63389999
   0.66666663  0.33333331  0.36610001
   0.33333334  0.66666669  0.22830001
   0.66666663  0.33333331  0.77170003
 
 position of ions in cartesian coordinates  (Angst):
   0.00000000  0.00000000  0.00000000
  -0.00000000  2.63733602  4.58246306
   2.28399979  1.31866789  2.64653703
  -0.00000000  2.63733602  1.65038076
   2.28399979  1.31866789  5.57861955
 


--------------------------------------------------------------------------------------------------------


 k-point  1 :   0.0000 0.0000 0.0000  plane waves:    2333
 k-point  2 :   0.1250 0.0000 0.0000  plane waves:    2373
 k-point  3 :   0.2500 0.0000 0.0000  plane waves:    2381
 k-point  4 :   0.3750-0.0000 0.0000  plane waves:    2379
 k-point  5 :   0.5000 0.0000 0.0000  plane waves:    2356
 k-point  6 :   0.1250 0.1250 0.0000  plane waves:    2383
 k-point  7 :   0.2500 0.1250 0.0000  plane waves:    2370
 k-point  8 :   0.3750 0.1250 0.0000  plane waves:    2367
 k-point  9 :   0.2500 0.2500 0.0000  plane waves:    2369
 k-point 10 :   0.3750 0.2500 0.0000  plane waves:    2370
 k-point 11 :   0.0000 0.0000 0.2000  plane waves:    2381
 k-point 12 :   0.1250 0.0000 0.2000  plane waves:    2385
 k-point 13 :   0.2500 0.0000 0.2000  plane waves:    2381
 k-point 14 :   0.3750-0.0000 0.2000  plane waves:    2374
 k-point 15 :   0.5000 0.0000 0.2000  plane waves:    2368
 k-point 16 :  -0.3750 0.0000 0.2000  plane waves:    2374
 k-point 17 :  -0.2500-0.0000 0.2000  plane waves:    2381
 k-point 18 :  -0.1250-0.0000 0.2000  plane waves:    2385
 k-point 19 :   0.1250 0.1250 0.2000  plane waves:    2396
 k-point 20 :   0.2500 0.1250 0.2000  plane waves:    2372
 k-point 21 :   0.3750 0.1250 0.2000  plane waves:    2360
 k-point 22 :   0.5000 0.1250 0.2000  plane waves:    2360
 k-point 23 :  -0.3750 0.1250 0.2000  plane waves:    2372
 k-point 24 :   0.2500 0.2500 0.2000  plane waves:    2365
 k-point 25 :   0.3750 0.2500 0.2000  plane waves:    2363
 k-point 26 :   0.0000 0.0000 0.4000  plane waves:    2400
 k-point 27 :   0.1250 0.0000 0.4000  plane waves:    2396
 k-point 28 :   0.2500 0.0000 0.4000  plane waves:    2388
 k-point 29 :   0.3750-0.0000 0.4000  plane waves:    2377
 k-point 30 :   0.5000 0.0000 0.4000  plane waves:    2364
 k-point 31 :  -0.3750 0.0000 0.4000  plane waves:    2377
 k-point 32 :  -0.2500-0.0000 0.4000  plane waves:    2388
 k-point 33 :  -0.1250-0.0000 0.4000  plane waves:    2396
 k-point 34 :   0.1250 0.1250 0.4000  plane waves:    2377
 k-point 35 :   0.2500 0.1250 0.4000  plane waves:    2376
 k-point 36 :   0.3750 0.1250 0.4000  plane waves:    2366
 k-point 37 :   0.5000 0.1250 0.4000  plane waves:    2366
 k-point 38 :  -0.3750 0.1250 0.4000  plane waves:    2376
 k-point 39 :   0.2500 0.2500 0.4000  plane waves:    2378
 k-point 40 :   0.3750 0.2500 0.4000  plane waves:    2348

 maximum and minimum number of plane-waves per node :       129      108

 maximum number of plane-waves:      2400
 maximum index in each direction: 
   IXMAX=    7   IYMAX=    7   IZMAX=   11
   IXMIN=   -7   IYMIN=   -7   IZMIN=  -12


 parallel 3D FFT for wavefunctions:
    minimum data exchange during FFTs selected (reduces bandwidth)
 parallel 3D FFT for charge:
    minimum data exchange during FFTs selected (reduces bandwidth)


 total amount of memory used by VASP MPI-rank0    31808. kBytes
=======================================================================

   base      :      30000. kBytes
   nonl-proj :       1075. kBytes
   fftplans  :        182. kBytes
   grid      :        267. kBytes
   one-center:          8. kBytes
   wavefun   :        276. kBytes
 
     INWAV:  cpu time    0.0000: real time    0.0000
 Broyden mixing: mesh for mixing (old mesh)
   NGX = 15   NGY = 15   NGZ = 23
  (NGX  = 48   NGY  = 48   NGZ  = 72)
  gives a total of   5175 points

 initial charge density was supplied:
 charge density of overlapping atoms calculated
 number of electron      16.0000000 magnetization 
 keeping initial charge density in first step


--------------------------------------------------------------------------------------------------------


 Maximum index for augmentation-charges          379 (set IRDMAX)


--------------------------------------------------------------------------------------------------------


 First call to EWALD:  gamma=   0.349
 Maximum number of real-space cells 3x 3x 2
 Maximum number of reciprocal cells 3x 3x 4

    FEWALD:  cpu time    0.0017: real time    0.0062


--------------------------------------- Iteration      1(   1)  ---------------------------------------


    POTLOK:  cpu time    0.0193: real time    0.0695
    SETDIJ:  cpu time    0.0043: real time    0.0102
     EDDAV:  cpu time    0.2392: real time    0.3582
       DOS:  cpu time    0.0012: real time    0.0121
    --------------------------------------------
      LOOP:  cpu time    0.2641: real time    0.4503

 eigenvalue-minimisations  :   960
 total energy-change (2. order) : 0.4222108E+02  (-0.4510203E+03)
 number of electron      16.0000000 magnetization 
 augmentation part       16.0000000 magnetization 

 Free energy of the ion-electron system (eV)
  ---------------------------------------------------
  alpha Z        PSCENC =         5.34845761
  Ewald energy   TEWEN  =      -389.91498094
  -Hartree energ DENC   =       -22.54401013
  -exchange      EXHF   =         0.00000000
  -V(xc)+E(xc)   XCENC  =      -238.67624789
  PAW double counting   =       523.27902600     -259.77882247
  entropy T*S    EENTRO =        -0.00291188
  eigenvalues    EBANDS =        55.49885699
  atomic energy  EATOM  =       369.01171218
  Solvation  Ediel_sol  =         0.00000000
  ---------------------------------------------------
  free energy    TOTEN  =        42.22107947 eV

  energy without entropy =       42.22399134  energy(sigma->0) =       42.22253540


--------------------------------------------------------------------------------------------------------




--------------------------------------- Iteration      1(   2)  ---------------------------------------


     EDDAV:  cpu time    0.2213: real time    0.2239
       DOS:  cpu time    0.0008: real time    0.0008
    --------------------------------------------
      LOOP:  cpu time    0.2221: real time    0.2247

 eigenvalue-minimisations  :  1216
 total energy-change (2. order) :-0.5388097E+02  (-0.4945129E+02)
 number of electron      16.0000000 magnetization 
 augmentation part       16.0000000 magnetization 

 Free energy of the ion-electron system (eV)
  ---------------------------------------------------
  alpha Z        PSCENC =         5.34845761
  Ewald energy   TEWEN  =      -389.91498094
  -Hartree energ DENC   =       -22.54401013
  -exchange      EXHF   =         0.00000000
  -V(xc)+E(xc)   XCENC  =      -238.67624789
  PAW double counting   =       523.27902600     -259.77882247
  entropy T*S    EENTRO =        -0.00109917
  eigenvalues    EBANDS =         1.61607152
  atomic energy  EATOM  =       369.01171218
  Solvation  Ediel_sol  =         0.00000000
  ---------------------------------------------------
  free energy    TOTEN  =       -11.65989330 eV

  energy without entropy =      -11.65879413  energy(sigma->0) =      -11.65934371


--------------------------------------------------------------------------------------------------------




--------------------------------------- Iteration      1(   3)  ---------------------------------------


     EDDAV:  cpu time    0.2101: real time    0.2104
       DOS:  cpu time    0.0007: real time    0.0006
    --------------------------------------------
      LOOP:  cpu time    0.2107: real time    0.2109

 eigenvalue-minimisations  :  1232
 total energy-change (2. order) :-0.3503856E+01  (-0.3370244E+01)
 number of electron      16.0000000 magnetization 
 augmentation part       16.0000000 magnetization 

 Free energy of the ion-electron system (eV)
  ---------------------------------------------------
  alpha Z        PSCENC =         5.34845761
  Ewald energy   TEWEN  =      -389.91498094
  -Hartree energ DENC   =       -22.54401013
  -exchange      EXHF   =         0.00000000
  -V(xc)+E(xc)   XCENC  =      -238.67624789
  PAW double counting   =       523.27902600     -259.77882247
  entropy T*S    EENTRO =        -0.00000000
  eigenvalues    EBANDS =        -1.88888319
  atomic energy  EATOM  =       369.01171218
  Solvation  Ediel_sol  =         0.00000000
  ---------------------------------------------------
  free energy    TOTEN  =       -15.16374884 eV

  energy without entropy =      -15.16374884  energy(sigma->0) =      -15.16374884


--------------------------------------------------------------------------------------------------------




--------------------------------------- Iteration      1(   4)  ---------------------------------------


     EDDAV:  cpu time    0.1957: real time    0.1962
       DOS:  cpu time    0.0005: real time    0.0005
    --------------------------------------------
      LOOP:  cpu time    0.1963: real time    0.1967

 eigenvalue-minimisations  :  1152
 total energy-change (2. order) :-0.5699913E-01  (-0.5692374E-01)
 number of electron      16.0000000 magnetization 
 augmentation part       16.0000000 magnetization 

 Free energy of the ion-electron system (eV)
  ---------------------------------------------------
  alpha Z        PSCENC =         5.34845761
  Ewald energy   TEWEN  =      -389.91498094
  -Hartree energ DENC   =       -22.54401013
  -exchange      EXHF   =         0.00000000
  -V(xc)+E(xc)   XCENC  =      -238.67624789
  PAW double counting   =       523.27902600     -259.77882247
  entropy T*S    EENTRO =        -0.00000000
  eigenvalues    EBANDS =        -1.94588233
  atomic energy  EATOM  =       369.01171218
  Solvation  Ediel_sol  =         0.00000000
  ---------------------------------------------------
  free energy    TOTEN  =       -15.22074798 eV

  energy without entropy =      -15.22074798  energy(sigma->0) =      -15.22074798


--------------------------------------------------------------------------------------------------------




--------------------------------------- Iteration      1(   5)  ---------------------------------------


     EDDAV:  cpu time    0.2000: real time    0.2002
       DOS:  cpu time    0.0005: real time    0.0005
    CHARGE:  cpu time    0.0158: real time    0.0418
    MIXING:  cpu time    0.0061: real time    0.0206
    --------------------------------------------
      LOOP:  cpu time    0.2224: real time    0.2632

 eigenvalue-minimisations  :  1200
 total energy-change (2. order) :-0.8920080E-03  (-0.8919568E-03)
 number of electron      15.9999991 magnetization 
 augmentation part       -1.6440278 magnetization 

 Broyden mixing:
  rms(total) = 0.44265E+00    rms(broyden)= 0.44265E+00
  rms(prec ) = 0.70167E+00
  weight for this iteration     100.00

 Free energy of the ion-electron system (eV)
  ---------------------------------------------------
  alpha Z        PSCENC =         5.34845761
  Ewald energy   TEWEN  =      -389.91498094
  -Hartree energ DENC   =       -22.54401013
  -exchange      EXHF   =         0.00000000
  -V(xc)+E(xc)   XCENC  =      -238.67624789
  PAW double counting   =       523.27902600     -259.77882247
  entropy T*S    EENTRO =        -0.00000000
  eigenvalues    EBANDS =        -1.94677433
  atomic energy  EATOM  =       369.01171218
  Solvation  Ediel_sol  =         0.00000000
  ---------------------------------------------------
  free energy    TOTEN  =       -15.22163998 eV

  energy without entropy =      -15.22163998  energy(sigma->0) =      -15.22163998


--------------------------------------------------------------------------------------------------------




--------------------------------------- Iteration      1(   6)  ---------------------------------------


    POTLOK:  cpu time    0.0060: real time    0.0063
    SETDIJ:  cpu time    0.0020: real time    0.0020
     EDDAV:  cpu time    0.1869: real time    0.1869
       DOS:  cpu time    0.0006: real time    0.0006
    CHARGE:  cpu time    0.0060: real time    0.0060
    MIXING:  cpu time    0.0012: real time    0.0050
    --------------------------------------------
      LOOP:  cpu time    0.2027: real time    0.2067

 eigenvalue-minimisations  :  1088
 total energy-change (2. order) : 0.4858872E+00  (-0.6758498E-01)
 number of electron      15.9999991 magnetization 
 augmentation part       -1.5816436 magnetization 

 Broyden mixing:
  rms(total) = 0.27402E+00    rms(broyden)= 0.27402E+00
  rms(prec ) = 0.38020E+00
  weight for this iteration     100.00

 eigenvalues of (default mixing * dielectric matrix)
  average eigenvalue GAMMA=   2.3042
  2.3042

 Free energy of the ion-electron system (eV)
  ---------------------------------------------------
  alpha Z        PSCENC =         5.34845761
  Ewald energy   TEWEN  =      -389.91498094
  -Hartree energ DENC   =       -25.98199031
  -exchange      EXHF   =         0.00000000
  -V(xc)+E(xc)   XCENC  =      -238.17452556
  PAW double counting   =       658.12047606     -394.80126034
  entropy T*S    EENTRO =        -0.00000000
  eigenvalues    EBANDS =         1.65635850
  atomic energy  EATOM  =       369.01171218
  Solvation  Ediel_sol  =         0.00000000
  ---------------------------------------------------
  free energy    TOTEN  =       -14.73575280 eV

  energy without entropy =      -14.73575280  energy(sigma->0) =      -14.73575280


--------------------------------------------------------------------------------------------------------




--------------------------------------- Iteration      1(   7)  ---------------------------------------


    POTLOK:  cpu time    0.0059: real time    0.0061
    SETDIJ:  cpu time    0.0018: real time    0.0018
     EDDAV:  cpu time    0.1901: real time    0.1901
       DOS:  cpu time    0.0008: real time    0.0008
    CHARGE:  cpu time    0.0062: real time    0.0062
    MIXING:  cpu time    0.0006: real time    0.0005
    --------------------------------------------
      LOOP:  cpu time    0.2053: real time    0.2055

 eigenvalue-minimisations  :  1132
 total energy-change (2. order) : 0.1013987E+00  (-0.4730296E-01)
 number of electron      15.9999992 magnetization 
 augmentation part       -1.5282805 magnetization 

 Broyden mixing:
  rms(total) = 0.10352E+00    rms(broyden)= 0.10352E+00
  rms(prec ) = 0.11900E+00
  weight for this iteration     100.00

 eigenvalues of (default mixing * dielectric matrix)
  average eigenvalue GAMMA=   2.4067
  1.6903  3.1231

 Free energy of the ion-electron system (eV)
  ---------------------------------------------------
  alpha Z        PSCENC =         5.34845761
  Ewald energy   TEWEN  =      -389.91498094
  -Hartree energ DENC   =       -29.19171900
  -exchange      EXHF   =         0.00000000
  -V(xc)+E(xc)   XCENC  =      -237.53635469
  PAW double counting   =       878.57792512     -615.37762288
  entropy T*S    EENTRO =        -0.00001289
  eigenvalues    EBANDS =         4.44824135
  atomic energy  EATOM  =       369.01171218
  Solvation  Ediel_sol  =         0.00000000
  ---------------------------------------------------
  free energy    TOTEN  =       -14.63435414 eV

  energy without entropy =      -14.63434125  energy(sigma->0) =      -14.63434770


--------------------------------------------------------------------------------------------------------




--------------------------------------- Iteration      1(   8)  ---------------------------------------


    POTLOK:  cpu time    0.0056: real time    0.0060
    SETDIJ:  cpu time    0.0018: real time    0.0018
     EDDAV:  cpu time    0.1841: real time    0.1847
       DOS:  cpu time    0.0008: real time    0.0007
    CHARGE:  cpu time    0.0060: real time    0.0060
    MIXING:  cpu time    0.0004: real time    0.0004
    --------------------------------------------
      LOOP:  cpu time    0.1996: real time    0.1997

 eigenvalue-minimisations  :  1056
 total energy-change (2. order) : 0.9046583E-03  (-0.2356617E-02)
 number of electron      15.9999991 magnetization 
 augmentation part       -1.5358899 magnetization 

 Broyden mixing:
  rms(total) = 0.67127E-02    rms(broyden)= 0.67127E-02
  rms(prec ) = 0.10471E-01
  weight for this iteration     100.00

 eigenvalues of (default mixing * dielectric matrix)
  average eigenvalue GAMMA=   1.8301
  2.7322  1.1209  1.6374

 Free energy of the ion-electron system (eV)
  ---------------------------------------------------
  alpha Z        PSCENC =         5.34845761
  Ewald energy   TEWEN  =      -389.91498094
  -Hartree energ DENC   =       -29.10088741
  -exchange      EXHF   =         0.00000000
  -V(xc)+E(xc)   XCENC  =      -237.31296371
  PAW double counting   =       998.46295337     -735.19895271
  entropy T*S    EENTRO =        -0.00000421
  eigenvalues    EBANDS =         4.07121634
  atomic energy  EATOM  =       369.01171218
  Solvation  Ediel_sol  =         0.00000000
  ---------------------------------------------------
  free energy    TOTEN  =       -14.63344949 eV

  energy without entropy =      -14.63344527  energy(sigma->0) =      -14.63344738


--------------------------------------------------------------------------------------------------------




--------------------------------------- Iteration      1(   9)  ---------------------------------------


    POTLOK:  cpu time    0.0060: real time    0.0061
    SETDIJ:  cpu time    0.0018: real time    0.0018
     EDDAV:  cpu time    0.2186: real time    0.2186
       DOS:  cpu time    0.0008: real time    0.0008
    CHARGE:  cpu time    0.0060: real time    0.0060
    MIXING:  cpu time    0.0004: real time    0.0004
    --------------------------------------------
      LOOP:  cpu time    0.2328: real time    0.2338

 eigenvalue-minimisations  :  1200
 total energy-change (2. order) : 0.2805725E-04  (-0.5456663E-04)
 number of electron      15.9999991 magnetization 
 augmentation part       -1.5356911 magnetization 

 Broyden mixing:
  rms(total) = 0.28047E-02    rms(broyden)= 0.28046E-02
  rms(prec ) = 0.47307E-02
  weight for this iteration     100.00

 eigenvalues of (default mixing * dielectric matrix)
  average eigenvalue GAMMA=   2.0066
  1.0296  1.6476  2.6746  2.6746

 Free energy of the ion-electron system (eV)
  ---------------------------------------------------
  alpha Z        PSCENC =         5.34845761
  Ewald energy   TEWEN  =      -389.91498094
  -Hartree energ DENC   =       -29.15853853
  -exchange      EXHF   =         0.00000000
  -V(xc)+E(xc)   XCENC  =      -237.32019558
  PAW double counting   =       992.02195690     -728.76439271
  entropy T*S    EENTRO =        -0.00000503
  eigenvalues    EBANDS =         4.14256468
  atomic energy  EATOM  =       369.01171218
  Solvation  Ediel_sol  =         0.00000000
  ---------------------------------------------------
  free energy    TOTEN  =       -14.63342143 eV

  energy without entropy =      -14.63341640  energy(sigma->0) =      -14.63341891


--------------------------------------------------------------------------------------------------------




--------------------------------------- Iteration      1(  10)  ---------------------------------------


    POTLOK:  cpu time    0.0053: real time    0.0055
    SETDIJ:  cpu time    0.0019: real time    0.0019
     EDDAV:  cpu time    0.3221: real time    0.3228
       DOS:  cpu time    0.0010: real time    0.0008
    CHARGE:  cpu time    0.0108: real time    0.0110
    MIXING:  cpu time    0.0005: real time    0.0004
    --------------------------------------------
      LOOP:  cpu time    0.3416: real time    0.3424

 eigenvalue-minimisations  :  1068
 total energy-change (2. order) :-0.5808059E-04  (-0.9201900E-05)
 number of electron      15.9999991 magnetization 
 augmentation part       -1.5355627 magnetization 

 Broyden mixing:
  rms(total) = 0.76333E-03    rms(broyden)= 0.76333E-03
  rms(prec ) = 0.15793E-02
  weight for this iteration     100.00

 eigenvalues of (default mixing * dielectric matrix)
  average eigenvalue GAMMA=   1.8588
  2.9461  2.5691  1.5739  0.9688  1.2360

 Free energy of the ion-electron system (eV)
  ---------------------------------------------------
  alpha Z        PSCENC =         5.34845761
  Ewald energy   TEWEN  =      -389.91498094
  -Hartree energ DENC   =       -29.18246586
  -exchange      EXHF   =         0.00000000
  -V(xc)+E(xc)   XCENC  =      -237.31608328
  PAW double counting   =       992.49554273     -729.23858148
  entropy T*S    EENTRO =        -0.00000493
  eigenvalues    EBANDS =         4.16292445
  atomic energy  EATOM  =       369.01171218
  Solvation  Ediel_sol  =         0.00000000
  ---------------------------------------------------
  free energy    TOTEN  =       -14.63347951 eV

  energy without entropy =      -14.63347458  energy(sigma->0) =      -14.63347705


--------------------------------------------------------------------------------------------------------




--------------------------------------- Iteration      1(  11)  ---------------------------------------


    POTLOK:  cpu time    0.0058: real time    0.0060
    SETDIJ:  cpu time    0.0018: real time    0.0018
     EDDAV:  cpu time    0.1816: real time    0.1821
       DOS:  cpu time    0.0007: real time    0.0007
    --------------------------------------------
      LOOP:  cpu time    0.1899: real time    0.1907

 eigenvalue-minimisations  :   876
 total energy-change (2. order) :-0.7587175E-05  (-0.1524315E-05)
 number of electron      15.9999991 magnetization 
 augmentation part       -1.5355627 magnetization 

 Free energy of the ion-electron system (eV)
  ---------------------------------------------------
  alpha Z        PSCENC =         5.34845761
  Ewald energy   TEWEN  =      -389.91498094
  -Hartree energ DENC   =       -29.18218221
  -exchange      EXHF   =         0.00000000
  -V(xc)+E(xc)   XCENC  =      -237.31475743
  PAW double counting   =       992.93585341     -729.67823287
  entropy T*S    EENTRO =        -0.00000478
  eigenvalues    EBANDS =         4.16064794
  atomic energy  EATOM  =       369.01171218
  Solvation  Ediel_sol  =         0.00000000
  ---------------------------------------------------
  free energy    TOTEN  =       -14.63348710 eV

  energy without entropy =      -14.63348231  energy(sigma->0) =      -14.63348470


--------------------------------------------------------------------------------------------------------




 average (electrostatic) potential at core
  the test charge radii are     1.0714  1.1712
  (the norm of the test charge is              1.0000)
       1 -38.3772       2 -37.6568       3 -37.6568       4 -87.4573       5 -87.4573
 
 
 
 E-fermi :   4.5980     XC(G=0):  -8.7999     alpha+bet : -9.4074


 k-point     1 :       0.0000    0.0000    0.0000
  band No.  band energies     occupation 
      1      -5.8288      2.00000
      2      -4.5840      2.00000
      3      -0.4360      2.00000
      4       3.3863      2.00000
      5       3.3863      2.00000
      6       4.0925      2.00000
      7       4.0925      2.00000
      8       4.5019      1.99339
      9       5.6160      0.00000
     10       5.7217      0.00000
     11       7.5308      0.00000
     12       7.5308      0.00000

 k-point     2 :       0.1250    0.0000    0.0000
  band No.  band energies     occupation 
      1      -5.7209      2.00000
      2      -4.5206      2.00000
      3      -0.3009      2.00000
      4       2.4553      2.00000
      5       3.0968      2.00000
      6       3.2079      2.00000
      7       4.0824      2.00000
      8       4.3540      2.00000
      9       6.3008      0.00000
     10       6.4447      0.00000
     11       7.1735      0.00000
     12       7.7611      0.00000

 k-point     3 :       0.2500    0.0000    0.0000
  band No.  band energies     occupation 
      1      -5.4173      2.00000
      2      -4.3712      2.00000
      3       0.0898      2.00000
      4       1.1270      2.00000
      5       2.0083      2.00000
      6       2.6341      2.00000
      7       3.8145      2.00000
      8       3.8933      2.00000
      9       5.6145      0.00000
     10       6.7906      0.00000
     11       7.2657      0.00000
     12       7.7385      0.00000

 k-point     4 :       0.3750   -0.0000    0.0000
  band No.  band energies     occupation 
      1      -4.9982      2.00000
      2      -4.2685      2.00000
      3       0.1248      2.00000
      4       0.7522      2.00000
      5       1.0745      2.00000
      6       2.3004      2.00000
      7       2.9246      2.00000
      8       3.6719      2.00000
      9       5.0642      0.00000
     10       6.5445      0.00000
     11       6.8085      0.00000
     12       7.4313      0.00000

 k-point     5 :       0.5000    0.0000    0.0000
  band No.  band energies     occupation 
      1      -4.7254      2.00000
      2      -4.3017      2.00000
      3      -0.1972      2.00000
      4       0.6998      2.00000
      5       1.2484      2.00000
      6       2.1825      2.00000
      7       2.2812      2.00000
      8       3.5826      2.00000
      9       4.8840      0.00000
     10       6.4580      0.00000
     11       6.6381      0.00000
     12       7.3154      0.00000

 k-point     6 :       0.1250    0.1250    0.0000
  band No.  band energies     occupation 
      1      -5.5146      2.00000
      2      -4.4131      2.00000
      3      -0.0364      2.00000
      4       1.6749      2.00000
      5       1.9432      2.00000
      6       2.9751      2.00000
      7       3.6694      2.00000
      8       4.0269      2.00000
      9       6.4389      0.00000
     10       6.8837      0.00000
     11       7.2844      0.00000
     12       7.5296      0.00000

 k-point     7 :       0.2500    0.1250    0.0000
  band No.  band energies     occupation 
      1      -5.1468      2.00000
      2      -4.2819      2.00000
      3       0.4199      2.00000
      4       0.7039      2.00000
      5       1.2184      2.00000
      6       2.2175      2.00000
      7       3.2457      2.00000
      8       3.3473      2.00000
      9       5.7785      0.00000
     10       6.6283      0.00000
     11       7.4006      0.00000
     12       7.8835      0.00000

 k-point     8 :       0.3750    0.1250    0.0000
  band No.  band energies     occupation 
      1      -4.7546      2.00000
      2      -4.2732      2.00000
      3      -0.0289      2.00000
      4       0.8261      2.00000
      5       1.1604      2.00000
      6       1.7007      2.00000
      7       2.5109      2.00000
      8       3.0215      2.00000
      9       5.3999      0.00000
     10       6.2561      0.00000
     11       7.3043      0.00000
     12       8.0589      0.00000

 k-point     9 :       0.2500    0.2500    0.0000
  band No.  band energies     occupation 
      1      -4.7803      2.00000
      2      -4.2483      2.00000
      3       0.3298      2.00000
      4       0.6498      2.00000
      5       1.1017      2.00000
      6       1.5541      2.00000
      7       2.4495      2.00000
      8       2.7226      2.00000
      9       5.1964      0.00000
     10       7.6595      0.00000
     11       7.8043      0.00000
     12       8.5254      0.00000

 k-point    10 :       0.3750    0.2500    0.0000
  band No.  band energies     occupation 
      1      -4.5235      2.00000
      2      -4.3248      2.00000
      3       0.0797      2.00000
      4       0.9058      2.00000
      5       0.9405      2.00000
      6       1.6376      2.00000
      7       2.1590      2.00000
      8       2.1887      2.00000
      9       4.8833      0.00000
     10       7.6300      0.00000
     11       8.6746      0.00000
     12       8.7569      0.00000

 k-point    11 :       0.0000    0.0000    0.2000
  band No.  band energies     occupation 
      1      -5.7449      2.00000
      2      -4.7549      2.00000
      3      -0.0755      2.00000
      4       3.4483      2.00000
      5       3.4483      2.00000
      6       3.4998      2.00000
      7       4.0239      2.00000
      8       4.0239      2.00000
      9       5.8298      0.00000
     10       6.2841      0.00000
     11       7.3668      0.00000
     12       7.3668      0.00000

 k-point    12 :       0.1250    0.0000    0.2000
  band No.  band energies     occupation 
      1      -5.6387      2.00000
      2      -4.6827      2.00000
      3       0.0359      2.00000
      4       2.5466      2.00000
      5       2.8419      2.00000
      6       3.1518      2.00000
      7       3.9594      2.00000
      8       4.0059      2.00000
      9       6.3381      0.00000
     10       6.8078      0.00000
     11       7.3010      0.00000
     12       7.4767      0.00000

 k-point    13 :       0.2500    0.0000    0.2000
  band No.  band energies     occupation 
      1      -5.3405      2.00000
      2      -4.5056      2.00000
      3       0.3161      2.00000
      4       1.2390      2.00000
      5       1.7466      2.00000
      6       2.7062      2.00000
      7       3.7502      2.00000
      8       3.8029      2.00000
      9       5.8118      0.00000
     10       6.4071      0.00000
     11       7.0440      0.00000
     12       7.7873      0.00000

 k-point    14 :       0.3750   -0.0000    0.2000
  band No.  band energies     occupation 
      1      -4.9342      2.00000
      2      -4.3525      2.00000
      3       0.0618      2.00000
      4       0.6061      2.00000
      5       1.2679      2.00000
      6       2.3837      2.00000
      7       3.3030      2.00000
      8       3.4880      2.00000
      9       5.1695      0.00000
     10       5.8938      0.00000
     11       6.9328      0.00000
     12       7.7384      0.00000

 k-point    15 :       0.5000    0.0000    0.2000
  band No.  band energies     occupation 
      1      -4.6825      2.00000
      2      -4.3368      2.00000
      3      -0.3338      2.00000
      4       0.3729      2.00000
      5       1.6414      2.00000
      6       2.2728      2.00000
      7       2.7721      2.00000
      8       3.3783      2.00000
      9       4.8501      0.00000
     10       5.7533      0.00000
     11       7.2430      0.00000
     12       7.7150      0.00000

 k-point    16 :      -0.3750    0.0000    0.2000
  band No.  band energies     occupation 
      1      -4.9412      2.00000
      2      -4.3399      2.00000
      3      -0.1328      2.00000
      4       0.8043      2.00000
      5       1.4063      2.00000
      6       2.3957      2.00000
      7       3.1430      2.00000
      8       3.4593      2.00000
      9       4.8720      0.00000
     10       5.9649      0.00000
     11       7.5219      0.00000
     12       7.8919      0.00000

 k-point    17 :      -0.2500   -0.0000    0.2000
  band No.  band energies     occupation 
      1      -5.3429      2.00000
      2      -4.5004      2.00000
      3       0.1988      2.00000
      4       1.3924      2.00000
      5       1.8330      2.00000
      6       2.7328      2.00000
      7       3.6883      2.00000
      8       3.7058      2.00000
      9       5.2857      0.00000
     10       6.5355      0.00000
     11       7.6878      0.00000
     12       8.3252      0.00000

 k-point    18 :      -0.1250   -0.0000    0.2000
  band No.  band energies     occupation 
      1      -5.6390      2.00000
      2      -4.6820      2.00000
      3       0.0276      2.00000
      4       2.5201      2.00000
      5       2.9351      2.00000
      6       3.1924      2.00000
      7       3.9220      2.00000
      8       3.9340      2.00000
      9       6.1368      0.00000
     10       6.6442      0.00000
     11       7.4862      0.00000
     12       7.8887      0.00000

 k-point    19 :       0.1250    0.1250    0.2000
  band No.  band energies     occupation 
      1      -5.4366      2.00000
      2      -4.5555      2.00000
      3       0.2112      2.00000
      4       1.8429      2.00000
      5       1.8491      2.00000
      6       2.7937      2.00000
      7       3.5099      2.00000
      8       3.9387      2.00000
      9       6.2492      0.00000
     10       6.9564      0.00000
     11       7.1147      0.00000
     12       7.6234      0.00000

 k-point    20 :       0.2500    0.1250    0.2000
  band No.  band energies     occupation 
      1      -5.0782      2.00000
      2      -4.3845      2.00000
      3       0.3678      2.00000
      4       0.7728      2.00000
      5       1.3680      2.00000
      6       2.1434      2.00000
      7       3.0294      2.00000
      8       3.6359      2.00000
      9       6.0714      0.00000
     10       6.5131      0.00000
     11       6.8753      0.00000
     12       7.4875      0.00000

 k-point    21 :       0.3750    0.1250    0.2000
  band No.  band energies     occupation 
      1      -4.7055      2.00000
      2      -4.3205      2.00000
      3      -0.1050      2.00000
      4       0.4461      2.00000
      5       1.3724      2.00000
      6       1.9845      2.00000
      7       2.7198      2.00000
      8       3.0484      2.00000
      9       5.5471      0.00000
     10       6.3248      0.00000
     11       7.0617      0.00000
     12       7.4825      0.00000

 k-point    22 :       0.5000    0.1250    0.2000
  band No.  band energies     occupation 
      1      -4.7113      2.00000
      2      -4.3117      2.00000
      3      -0.2033      2.00000
      4       0.5517      2.00000
      5       1.4722      2.00000
      6       1.9219      2.00000
      7       2.6918      2.00000
      8       3.0168      2.00000
      9       5.4049      0.00000
     10       6.4264      0.00000
     11       6.9698      0.00000
     12       8.0770      0.00000

 k-point    23 :      -0.3750    0.1250    0.2000
  band No.  band energies     occupation 
      1      -5.0811      2.00000
      2      -4.3788      2.00000
      3       0.1803      2.00000
      4       1.0259      2.00000
      5       1.4170      2.00000
      6       2.0907      2.00000
      7       2.9932      2.00000
      8       3.5964      2.00000
      9       5.6184      0.00000
     10       6.7835      0.00000
     11       7.1001      0.00000
     12       7.9666      0.00000

 k-point    24 :       0.2500    0.2500    0.2000
  band No.  band energies     occupation 
      1      -4.7315      2.00000
      2      -4.2983      2.00000
      3       0.2291      2.00000
      4       0.4006      2.00000
      5       1.2818      2.00000
      6       1.7502      2.00000
      7       2.2122      2.00000
      8       3.1801      2.00000
      9       5.6285      0.00000
     10       6.9717      0.00000
     11       7.7340      0.00000
     12       8.0785      0.00000

 k-point    25 :       0.3750    0.2500    0.2000
  band No.  band energies     occupation 
      1      -4.4978      2.00000
      2      -4.3354      2.00000
      3       0.0547      2.00000
      4       0.5658      2.00000
      5       0.7267      2.00000
      6       1.8725      2.00000
      7       2.2319      2.00000
      8       2.7282      2.00000
      9       5.3441      0.00000
     10       7.3881      0.00000
     11       7.7934      0.00000
     12       8.0019      0.00000

 k-point    26 :       0.0000    0.0000    0.4000
  band No.  band energies     occupation 
      1      -5.5112      2.00000
      2      -5.1142      2.00000
      3       0.8509      2.00000
      4       2.1064      2.00000
      5       3.6138      2.00000
      6       3.6139      2.00000
      7       3.8454      2.00000
      8       3.8454      2.00000
      9       6.1250      0.00000
     10       6.4773      0.00000
     11       7.2203      0.00000
     12       7.2203      0.00000

 k-point    27 :       0.1250    0.0000    0.4000
  band No.  band energies     occupation 
      1      -5.4102      2.00000
      2      -5.0274      2.00000
      3       0.8824      2.00000
      4       1.9020      2.00000
      5       2.8948      2.00000
      6       3.3281      2.00000
      7       3.3441      2.00000
      8       3.7361      2.00000
      9       6.3545      0.00000
     10       6.9257      0.00000
     11       7.1797      0.00000
     12       7.5182      0.00000

 k-point    28 :       0.2500    0.0000    0.4000
  band No.  band energies     occupation 
      1      -5.1308      2.00000
      2      -4.7996      2.00000
      3       0.7417      2.00000
      4       1.0220      2.00000
      5       2.0983      2.00000
      6       2.9352      2.00000
      7       3.1462      2.00000
      8       3.3846      2.00000
      9       5.6892      0.00000
     10       6.2957      0.00000
     11       7.2472      0.00000
     12       8.3140      0.00000

 k-point    29 :       0.3750   -0.0000    0.4000
  band No.  band energies     occupation 
      1      -4.7682      2.00000
      2      -4.5456      2.00000
      3       0.0094      2.00000
      4       0.2151      2.00000
      5       2.1792      2.00000
      6       2.6295      2.00000
      7       3.0855      2.00000
      8       3.2269      2.00000
      9       5.2821      0.00000
     10       5.7603      0.00000
     11       6.3496      0.00000
     12       7.6698      0.00000

 k-point    30 :       0.5000    0.0000    0.4000
  band No.  band energies     occupation 
      1      -4.5713      2.00000
      2      -4.4361      2.00000
      3      -0.4379      2.00000
      4      -0.0432      2.00000
      5       2.4677      2.00000
      6       2.5260      2.00000
      7       2.9665      2.00000
      8       3.1675      2.00000
      9       4.7923      0.00000
     10       5.8133      0.00000
     11       6.3982      0.00000
     12       6.9793      0.00000

 k-point    31 :      -0.3750    0.0000    0.4000
  band No.  band energies     occupation 
      1      -4.7807      2.00000
      2      -4.5296      2.00000
      3      -0.1559      2.00000
      4       0.3802      2.00000
      5       2.3260      2.00000
      6       2.6511      2.00000
      7       3.0554      2.00000
      8       3.1308      2.00000
      9       4.7133      0.00110
     10       6.1981      0.00000
     11       6.8686      0.00000
     12       7.2245      0.00000

 k-point    32 :      -0.2500   -0.0000    0.4000
  band No.  band energies     occupation 
      1      -5.1352      2.00000
      2      -4.7936      2.00000
      3       0.5544      2.00000
      4       1.2448      2.00000
      5       2.1787      2.00000
      6       2.9840      2.00000
      7       3.0638      2.00000
      8       3.3172      2.00000
      9       5.2567      0.00000
     10       6.6284      0.00000
     11       7.4955      0.00000
     12       8.3354      0.00000

 k-point    33 :      -0.1250   -0.0000    0.4000
  band No.  band energies     occupation 
      1      -5.4108      2.00000
      2      -5.0266      2.00000
      3       0.8616      2.00000
      4       1.9474      2.00000
      5       2.8599      2.00000
      6       3.3631      2.00000
      7       3.4221      2.00000
      8       3.6335      2.00000
      9       6.1684      0.00000
     10       6.8946      0.00000
     11       7.3660      0.00000
     12       7.7441      0.00000

 k-point    34 :       0.1250    0.1250    0.4000
  band No.  band energies     occupation 
      1      -5.2207      2.00000
      2      -4.8674      2.00000
      3       0.7891      2.00000
      4       1.4225      2.00000
      5       2.3509      2.00000
      6       2.7561      2.00000
      7       3.1792      2.00000
      8       3.3073      2.00000
      9       6.2073      0.00000
     10       7.1023      0.00000
     11       7.2782      0.00000
     12       7.7458      0.00000

 k-point    35 :       0.2500    0.1250    0.4000
  band No.  band energies     occupation 
      1      -4.8938      2.00000
      2      -4.6195      2.00000
      3       0.4224      2.00000
      4       0.5153      2.00000
      5       1.9864      2.00000
      6       2.3672      2.00000
      7       2.6937      2.00000
      8       3.4081      2.00000
      9       6.0673      0.00000
     10       6.4561      0.00000
     11       6.9933      0.00000
     12       7.6898      0.00000

 k-point    36 :       0.3750    0.1250    0.4000
  band No.  band energies     occupation 
      1      -4.5826      2.00000
      2      -4.4382      2.00000
      3      -0.2006      2.00000
      4       0.0584      2.00000
      5       1.6959      2.00000
      6       2.2518      2.00000
      7       2.7904      2.00000
      8       3.4552      2.00000
      9       5.6002      0.00000
     10       6.1064      0.00000
     11       6.7094      0.00000
     12       7.5215      0.00000

 k-point    37 :       0.5000    0.1250    0.4000
  band No.  band energies     occupation 
      1      -4.5931      2.00000
      2      -4.4259      2.00000
      3      -0.2859      2.00000
      4       0.1476      2.00000
      5       1.7169      2.00000
      6       2.2500      2.00000
      7       2.8073      2.00000
      8       3.4232      2.00000
      9       5.2693      0.00000
     10       6.5549      0.00000
     11       6.8385      0.00000
     12       7.2391      0.00000

 k-point    38 :      -0.3750    0.1250    0.4000
  band No.  band energies     occupation 
      1      -4.8990      2.00000
      2      -4.6127      2.00000
      3       0.2335      2.00000
      4       0.7193      2.00000
      5       2.0570      2.00000
      6       2.3778      2.00000
      7       2.6249      2.00000
      8       3.3857      2.00000
      9       5.5853      0.00000
     10       7.0087      0.00000
     11       7.1874      0.00000
     12       7.8866      0.00000

 k-point    39 :       0.2500    0.2500    0.4000
  band No.  band energies     occupation 
      1      -4.6033      2.00000
      2      -4.4290      2.00000
      3       0.0837      2.00000
      4       0.2442      2.00000
      5       1.2090      2.00000
      6       1.7266      2.00000
      7       2.8057      2.00000
      8       3.5337      2.00000
      9       6.1047      0.00000
     10       6.4988      0.00000
     11       7.3410      0.00000
     12       7.7686      0.00000

 k-point    40 :       0.3750    0.2500    0.4000
  band No.  band energies     occupation 
      1      -4.4364      2.00000
      2      -4.3722      2.00000
      3      -0.0228      2.00000
      4       0.1892      2.00000
      5       0.7712      2.00000
      6       1.4219      2.00000
      7       3.1492      2.00000
      8       3.4446      2.00000
      9       6.0533      0.00000
     10       6.6000      0.00000
     11       6.7553      0.00000
     12       7.7132      0.00000


--------------------------------------------------------------------------------------------------------


 soft charge-density along one line, spin component           1
         0         1         2         3         4         5         6         7         8         9
 total charge-density along one line
 
 pseudopotential strength for first ion, spin component:           1
  2.981   9.535   0.000  -0.000   0.000   0.000  -0.000   0.000
  9.535  30.316   0.000  -0.000   0.000   0.000  -0.000   0.000
  0.000   0.000   7.069  -0.000  -0.000  10.410  -0.000  -0.000
 -0.000  -0.000  -0.000   7.070  -0.000  -0.000  10.411  -0.000
  0.000   0.000  -0.000  -0.000   7.069  -0.000  -0.000  10.410
  0.000   0.000  10.410  -0.000  -0.000  14.482  -0.000  -0.000
 -0.000  -0.000  -0.000  10.411  -0.000  -0.000  14.483  -0.000
  0.000   0.000  -0.000  -0.000  10.410  -0.000  -0.000  14.482
 -0.000  -0.000   0.000  -0.000   0.000   0.000  -0.000   0.000
 -0.000  -0.000  -0.000   0.000  -0.000  -0.000   0.000  -0.000
  0.000   0.001  -0.000  -0.000  -0.000  -0.000  -0.000  -0.000
 -0.000  -0.000  -0.000   0.000  -0.000  -0.000   0.000  -0.000
  0.000   0.000   0.000  -0.000   0.000   0.000  -0.000   0.000
 total augmentation occupancy for first ion, spin component:           1
  0.902  -0.014   0.000   0.000   0.000   0.000   0.000   0.000  -0.000  -0.000  -0.005   0.000   0.000
 -0.014   0.000   0.000   0.000   0.000   0.000   0.000   0.000  -0.000   0.000   0.000   0.000  -0.000
  0.000   0.000   0.061  -0.000   0.000  -0.004  -0.000   0.000   0.000   0.000   0.000   0.000   0.000
  0.000   0.000  -0.000   0.059   0.000  -0.000  -0.004  -0.000   0.000   0.000   0.000   0.000   0.000
  0.000   0.000   0.000   0.000   0.061   0.000   0.000  -0.004   0.000   0.000   0.000   0.000   0.000
  0.000   0.000  -0.004  -0.000   0.000   0.000   0.000   0.000   0.000   0.000   0.000   0.000   0.000
  0.000   0.000  -0.000  -0.004   0.000   0.000   0.000  -0.000   0.000   0.000   0.000   0.000   0.000
  0.000   0.000   0.000   0.000  -0.004   0.000   0.000   0.000   0.000   0.000   0.000   0.000   0.000
  0.000  -0.000   0.000   0.000   0.000   0.000   0.000   0.000   0.006   0.000  -0.000  -0.005   0.000
  0.000   0.000   0.000   0.000   0.000   0.000   0.000   0.000   0.000   0.010   0.000   0.000  -0.005
 -0.005   0.000   0.000   0.000   0.000   0.000   0.000   0.000  -0.000   0.000   0.003  -0.000  -0.000
  0.000   0.000   0.000   0.000   0.000   0.000   0.000   0.000  -0.005   0.000  -0.000   0.010   0.000
  0.000  -0.000   0.000   0.000   0.000   0.000   0.000   0.000   0.000  -0.005  -0.000  -0.000   0.006


------------------------ aborting loop because EDIFF is reached ----------------------------------------


    CHARGE:  cpu time    0.0069: real time    0.0068
    FORLOC:  cpu time    0.0004: real time    0.0042
    FORNL :  cpu time    0.0161: real time    0.0282
    STRESS:  cpu time    0.0515: real time    0.0606
    FORCOR:  cpu time    0.0057: real time    0.0179
    FORHAR:  cpu time    0.0143: real time    0.0338
    MIXING:  cpu time    0.0007: real time    0.0020
    OFIELD:  cpu time    0.0009: real time    0.0112

  FORCE on cell =-STRESS in cart. coord.  units (eV):
  Direction    XX          YY          ZZ          XY          YZ          ZX
  --------------------------------------------------------------------------------------
  Alpha Z     5.34846     5.34846     5.34846
  Ewald    -129.75658  -129.75656  -130.40232    -0.00001     0.00000     0.00000
  Hartree     9.17473     9.17473    10.84242     0.00000     0.00000     0.00000
  E(xc)     -56.23717   -56.23718   -55.99213    -0.00001    -0.00000     0.00000
  Local     -71.86424   -71.86428   -72.97442    -0.00002    -0.00000    -0.00000
  n-local   187.26834   190.80137   186.75506    -4.29351    -0.45460    -0.57368
  augment   -33.36551   -33.36548   -32.96253     0.00003    -0.00000     0.00000
  Kinetic    86.51944    90.49276    90.15422    -2.81579     0.29221    -0.48347
  Fock        0.00000     0.00000     0.00000     0.00000     0.00000     0.00000
  -------------------------------------------------------------------------------------
  Total       0.84064     0.84064     0.76877    -0.00000     0.00000     0.00000
  in kB      10.31000    10.31000     9.42853    -0.00000     0.00000     0.00000
  external pressure =       10.02 kB  Pullay stress =        0.00 kB


 VOLUME and BASIS-vectors are now :
 -----------------------------------------------------------------------------
  energy-cutoff  :      400.00
  volume of cell :      130.64
      direct lattice vectors                 reciprocal lattice vectors
     4.567999840  0.000000000  0.000000000     0.218914193  0.126390168  0.000000000
    -2.283999920  3.956003906  0.000000000     0.000000000  0.252780337  0.000000000
     0.000000000  0.000000000  7.229000092     0.000000000  0.000000000  0.138331718

  length of vectors
     4.567999840  4.567999840  7.229000092     0.252780337  0.252780337  0.138331718


 FORCES acting on ions
    electron-ion (+dipol)            ewald-force                    non-local-force                 convergence-correction
 -----------------------------------------------------------------------------------------------
   -.126E-06 0.592E-14 0.691E-07   -.894E-06 -.214E-12 0.459E-06   0.132E-22 0.000E+00 0.000E+00   0.129E-08 0.154E-15 0.421E-07
   -.192E-05 0.188E-05 0.190E+01   -.172E-05 -.215E-05 -.203E+01   0.486E-16 0.000E+00 0.934E-01   0.238E-08 0.186E-08 -.285E-03
   0.455E-07 -.188E-05 -.190E+01   0.181E-05 0.215E-05 0.203E+01   -.139E-16 0.000E+00 -.934E-01   -.299E-08 -.186E-08 0.285E-03
   0.269E-06 -.136E-04 -.130E+01   -.176E-05 -.263E-05 -.409E+00   0.208E-16 0.139E-16 0.154E+01   0.427E-08 0.113E-07 0.492E-03
   0.230E-04 0.136E-04 0.130E+01   0.257E-05 0.263E-05 0.409E+00   0.694E-17 -.139E-16 -.154E+01   -.134E-07 -.113E-07 -.492E-03
[...]
     11       6.9028      0.00000
     12       7.4532      0.00000

 k-point    20 :       0.2500    0.1250    0.2000
  band No.  band energies     occupation 
      1      -5.1556      2.00000
      2      -4.4776      2.00000
      3       0.2749      2.00000
      4       0.6716      2.00000
      5       1.2772      2.00000
      6       2.0335      2.00000
      7       2.9235      2.00000
      8       3.4992      2.00000
      9       5.8915      0.00000
     10       6.3517      0.00000
     11       6.6725      0.00000
     12       7.2953      0.00000

 k-point    21 :       0.3750    0.1250    0.2000
  band No.  band energies     occupation 
      1      -4.7949      2.00000
      2      -4.4197      2.00000
      3      -0.1862      2.00000
      4       0.3711      2.00000
      5       1.2682      2.00000
      6       1.8759      2.00000
      7       2.6166      2.00000
      8       2.9254      2.00000
      9       5.3638      0.00000
     10       6.1788      0.00000
     11       6.8675      0.00000
     12       7.2812      0.00000

 k-point    22 :       0.5000    0.1250    0.2000
  band No.  band energies     occupation 
      1      -4.8004      2.00000
      2      -4.4116      2.00000
      3      -0.2787      2.00000
      4       0.4699      2.00000
      5       1.3643      2.00000
      6       1.8176      2.00000
      7       2.5875      2.00000
      8       2.8975      2.00000
      9       5.2202      0.00000
     10       6.2804      0.00000
     11       6.7709      0.00000
     12       7.9105      0.00000

 k-point    23 :      -0.3750    0.1250    0.2000
  band No.  band energies     occupation 
      1      -5.1583      2.00000
      2      -4.4723      2.00000
      3       0.0937      2.00000
      4       0.9177      2.00000
      5       1.3192      2.00000
      6       1.9872      2.00000
      7       2.8874      2.00000
      8       3.4661      2.00000
      9       5.4308      0.00000
     10       6.6145      0.00000
     11       6.9089      0.00000
     12       7.8101      0.00000

 k-point    24 :       0.2500    0.2500    0.2000
  band No.  band energies     occupation 
      1      -4.8198      2.00000
      2      -4.3983      2.00000
      3       0.1481      2.00000
      4       0.3097      2.00000
      5       1.1868      2.00000
      6       1.6442      2.00000
      7       2.1234      2.00000
      8       3.0501      2.00000
      9       5.4756      0.00000
     10       6.7543      0.00000
     11       7.5404      0.00000
     12       7.8808      0.00000

 k-point    25 :       0.3750    0.2500    0.2000
  band No.  band energies     occupation 
      1      -4.5940      2.00000
      2      -4.4361      2.00000
      3      -0.0265      2.00000
      4       0.4842      2.00000
      5       0.6364      2.00000
      6       1.7923      2.00000
      7       2.1146      2.00000
      8       2.6047      2.00000
      9       5.1970      0.00000
     10       7.1548      0.00000
     11       7.6226      0.00000
     12       7.7733      0.00000

 k-point    26 :       0.0000    0.0000    0.4000
  band No.  band energies     occupation 
      1      -5.5818      2.00000
      2      -5.1723      2.00000
      3       0.7392      2.00000
      4       1.9717      2.00000
      5       3.4899      2.00000
      6       3.4899      2.00000
      7       3.7117      2.00000
      8       3.7117      2.00000
      9       5.9219      0.00000
     10       6.2558      0.00000
     11       7.0448      0.00000
     12       7.0448      0.00000

 k-point    27 :       0.1250    0.0000    0.4000
  band No.  band energies     occupation 
      1      -5.4834      2.00000
      2      -5.0889      2.00000
      3       0.7690      2.00000
      4       1.7667      2.00000
      5       2.7876      2.00000
      6       3.1983      2.00000
      7       3.2194      2.00000
      8       3.6126      2.00000
      9       6.1720      0.00000
     10       6.7263      0.00000
     11       6.9721      0.00000
     12       7.3341      0.00000

 k-point    28 :       0.2500    0.0000    0.4000
  band No.  band energies     occupation 
      1      -5.2113      2.00000
      2      -4.8709      2.00000
      3       0.6326      2.00000
      4       0.9089      2.00000
      5       2.0063      2.00000
      6       2.8141      2.00000
      7       3.0114      2.00000
      8       3.2735      2.00000
      9       5.5170      0.00000
     10       6.1369      0.00000
     11       7.0454      0.00000
     12       8.0368      0.00000

 k-point    29 :       0.3750   -0.0000    0.4000
  band No.  band energies     occupation 
      1      -4.8589      2.00000
      2      -4.6308      2.00000
      3      -0.0890      2.00000
      4       0.1479      2.00000
      5       2.0677      2.00000
      6       2.5120      2.00000
      7       2.9822      2.00000
      8       3.0889      2.00000
      9       5.1155      0.00000
     10       5.6063      0.00000
     11       6.1676      0.00000
     12       7.4981      0.00000

 k-point    30 :       0.5000    0.0000    0.4000
  band No.  band energies     occupation 
      1      -4.6665      2.00000
      2      -4.5310      2.00000
      3      -0.5165      2.00000
      4      -0.1055      2.00000
      5       2.3400      2.00000
      6       2.4095      2.00000
      7       2.8660      2.00000
      8       3.0438      2.00000
      9       4.6174      0.00000
     10       5.6679      0.00000
     11       6.2099      0.00000
     12       6.8216      0.00000

 k-point    31 :      -0.3750    0.0000    0.4000
  band No.  band energies     occupation 
      1      -4.8701      2.00000
      2      -4.6165      2.00000
      3      -0.2392      2.00000
      4       0.2984      2.00000
      5       2.2028      2.00000
      6       2.5326      2.00000
      7       2.9528      2.00000
      8       3.0152      2.00000
      9       4.5353      0.00353
     10       6.0400      0.00000
     11       6.7107      0.00000
     12       7.0273      0.00000

 k-point    32 :      -0.2500   -0.0000    0.4000
  band No.  band energies     occupation 
      1      -5.2152      2.00000
      2      -4.8655      2.00000
      3       0.4504      2.00000
      4       1.1305      2.00000
      5       2.0676      2.00000
      6       2.8610      2.00000
      7       2.9513      2.00000
      8       3.2077      2.00000
      9       5.0785      0.00000
     10       6.4640      0.00000
     11       7.3099      0.00000
     12       8.1205      0.00000

 k-point    33 :      -0.1250   -0.0000    0.4000
  band No.  band energies     occupation 
      1      -5.4839      2.00000
      2      -5.0882      2.00000
      3       0.7484      2.00000
      4       1.8141      2.00000
      5       2.7350      2.00000
      6       3.2512      2.00000
      7       3.2957      2.00000
      8       3.5117      2.00000
      9       5.9866      0.00000
     10       6.6763      0.00000
     11       7.1788      0.00000
     12       7.5492      0.00000

 k-point    34 :       0.1250    0.1250    0.4000
  band No.  band energies     occupation 
      1      -5.2987      2.00000
      2      -4.9357      2.00000
      3       0.6787      2.00000
      4       1.2965      2.00000
      5       2.2482      2.00000
      6       2.6379      2.00000
      7       3.0690      2.00000
      8       3.1862      2.00000
      9       6.0166      0.00000
     10       6.9157      0.00000
     11       7.1020      0.00000
     12       7.5384      0.00000

 k-point    35 :       0.2500    0.1250    0.4000
  band No.  band energies     occupation 
      1      -4.9808      2.00000
      2      -4.7001      2.00000
      3       0.3249      2.00000
      4       0.4194      2.00000
      5       1.8849      2.00000
      6       2.2508      2.00000
      7       2.5962      2.00000
      8       3.2788      2.00000
      9       5.8836      0.00000
     10       6.2719      0.00000
     11       6.8165      0.00000
     12       7.4998      0.00000

 k-point    36 :       0.3750    0.1250    0.4000
  band No.  band energies     occupation 
      1      -4.6784      2.00000
      2      -4.5313      2.00000
      3      -0.2875      2.00000
      4      -0.0060      2.00000
      5       1.5822      2.00000
      6       2.1608      2.00000
      7       2.6737      2.00000
      8       3.3266      2.00000
      9       5.4128      0.00000
     10       5.9355      0.00000
     11       6.5412      0.00000
     12       7.3488      0.00000

 k-point    37 :       0.5000    0.1250    0.4000
  band No.  band energies     occupation 
      1      -4.6878      2.00000
      2      -4.5203      2.00000
      3      -0.3645      2.00000
      4       0.0749      2.00000
      5       1.6009      2.00000
      6       2.1631      2.00000
      7       2.6858      2.00000
      8       3.3018      2.00000
      9       5.0809      0.00000
     10       6.3941      0.00000
     11       6.6479      0.00000
     12       7.0733      0.00000

 k-point    38 :      -0.3750    0.1250    0.4000
  band No.  band energies     occupation 
      1      -4.9854      2.00000
      2      -4.6939      2.00000
      3       0.1427      2.00000
      4       0.6171      2.00000
      5       1.9386      2.00000
      6       2.2862      2.00000
      7       2.5160      2.00000
      8       3.2635      2.00000
      9       5.3965      0.00000
     10       6.8329      0.00000
     11       7.0097      0.00000
     12       7.6957      0.00000

 k-point    39 :       0.2500    0.2500    0.4000
  band No.  band energies     occupation 
      1      -4.6984      2.00000
      2      -4.5218      2.00000
      3       0.0061      2.00000
      4       0.1500      2.00000
      5       1.1080      2.00000
      6       1.6527      2.00000
      7       2.6871      2.00000
      8       3.4057      2.00000
      9       5.9149      0.00000
     10       6.3108      0.00000
     11       7.1424      0.00000
     12       7.5776      0.00000

 k-point    40 :       0.3750    0.2500    0.4000
  band No.  band energies     occupation 
      1      -4.5357      2.00000
      2      -4.4712      2.00000
      3      -0.1057      2.00000
      4       0.1147      2.00000
      5       0.6708      2.00000
      6       1.3550      2.00000
      7       3.0246      2.00000
      8       3.3179      2.00000
      9       5.8694      0.00000
     10       6.4021      0.00000
     11       6.5732      0.00000
     12       7.5269      0.00000


--------------------------------------------------------------------------------------------------------


 soft charge-density along one line, spin component           1
         0         1         2         3         4         5         6         7         8         9
 total charge-density along one line
 
 pseudopotential strength for first ion, spin component:           1
  2.982   9.540   0.000  -0.000   0.000   0.000  -0.000   0.000
  9.540  30.342   0.000  -0.000   0.000   0.000  -0.000   0.000
  0.000   0.000   7.060  -0.000  -0.000  10.404  -0.000  -0.000
 -0.000  -0.000  -0.000   7.060  -0.000  -0.000  10.405  -0.000
  0.000   0.000  -0.000  -0.000   7.060  -0.000  -0.000  10.404
  0.000   0.000  10.404  -0.000  -0.000  14.481  -0.000  -0.000
 -0.000  -0.000  -0.000  10.405  -0.000  -0.000  14.483  -0.000
  0.000   0.000  -0.000  -0.000  10.404  -0.000  -0.000  14.481
 -0.000  -0.000   0.000  -0.000   0.000   0.000  -0.000   0.000
 -0.000  -0.000  -0.000   0.000  -0.000  -0.000   0.000  -0.000
  0.000   0.001  -0.000  -0.000  -0.000  -0.000  -0.000  -0.000
 -0.000  -0.000  -0.000   0.000  -0.000  -0.000   0.000  -0.000
  0.000   0.000   0.000  -0.000   0.000   0.000  -0.000   0.000
 total augmentation occupancy for first ion, spin component:           1
  0.900  -0.013   0.000   0.000   0.000   0.000   0.000   0.000  -0.000  -0.000  -0.005   0.000   0.000
 -0.013   0.000   0.000   0.000   0.000   0.000   0.000   0.000   0.000   0.000   0.000   0.000  -0.000
  0.000   0.000   0.060   0.000   0.000  -0.004  -0.000  -0.000   0.000   0.000   0.000   0.000   0.000
  0.000   0.000   0.000   0.058  -0.000  -0.000  -0.004   0.000   0.000   0.000   0.000   0.000   0.000
  0.000   0.000   0.000  -0.000   0.060  -0.000   0.000  -0.004   0.000   0.000   0.000   0.000   0.000
  0.000   0.000  -0.004  -0.000  -0.000   0.000   0.000   0.000   0.000   0.000   0.000   0.000   0.000
  0.000   0.000  -0.000  -0.004   0.000   0.000   0.000  -0.000   0.000   0.000   0.000   0.000   0.000
  0.000   0.000  -0.000   0.000  -0.004   0.000  -0.000   0.000   0.000   0.000   0.000   0.000   0.000
  0.000   0.000   0.000   0.000   0.000   0.000   0.000   0.000   0.006  -0.000   0.000  -0.005   0.000
  0.000  -0.000   0.000   0.000   0.000   0.000   0.000   0.000  -0.000   0.009   0.000   0.000  -0.005
 -0.005   0.000   0.000   0.000   0.000   0.000   0.000   0.000  -0.000   0.000   0.002  -0.000  -0.000
  0.000   0.000   0.000   0.000   0.000   0.000   0.000   0.000  -0.005   0.000   0.000   0.009   0.000
  0.000  -0.000   0.000   0.000   0.000   0.000   0.000   0.000   0.000  -0.005  -0.000   0.000   0.006


------------------------ aborting loop because EDIFF is reached ----------------------------------------


    CHARGE:  cpu time    0.0059: real time    0.0059
    FORLOC:  cpu time    0.0001: real time    0.0001
    FORNL :  cpu time    0.0149: real time    0.0148
    STRESS:  cpu time    0.0446: real time    0.0449
    FORCOR:  cpu time    0.0032: real time    0.0032
    FORHAR:  cpu time    0.0009: real time    0.0009
    MIXING:  cpu time    0.0002: real time    0.0003
    OFIELD:  cpu time    0.0001: real time    0.0001

  FORCE on cell =-STRESS in cart. coord.  units (eV):
  Direction    XX          YY          ZZ          XY          YZ          ZX
  --------------------------------------------------------------------------------------
  Alpha Z     5.24900     5.24900     5.24900
  Ewald    -129.14694  -129.14692  -129.24091    -0.00001     0.00000     0.00000
  Hartree     9.44759     9.44759    10.84233     0.00000     0.00000     0.00000
  E(xc)     -55.96619   -55.96620   -55.73122    -0.00001    -0.00000     0.00000
  Local     -72.24966   -72.24970   -73.41241    -0.00002    -0.00000    -0.00000
  n-local   186.35758   189.86000   185.91800    -4.28068    -0.45100    -0.58000
  augment   -33.38633   -33.38629   -32.96509     0.00003    -0.00000     0.00000
  Kinetic    85.92724    89.92323    89.36014    -2.86425     0.30028    -0.44314
  Fock        0.00000     0.00000     0.00000     0.00000     0.00000     0.00000
  -------------------------------------------------------------------------------------
  Total      -0.01849    -0.01849     0.01984     0.00000     0.00000    -0.00000
  in kB      -0.22260    -0.22260     0.23882     0.00000     0.00000    -0.00000
  external pressure =       -0.07 kB  Pullay stress =        0.00 kB


 VOLUME and BASIS-vectors are now :
 -----------------------------------------------------------------------------
  energy-cutoff  :      400.00
  volume of cell :      133.11
      direct lattice vectors                 reciprocal lattice vectors
     4.597849902  0.000000000  0.000000000     0.217492963  0.125569621 -0.000000000
    -2.298924951  3.981854818  0.000000000    -0.000000000  0.251139242 -0.000000000
    -0.000000000  0.000000000  7.270638344     0.000000000 -0.000000000  0.137539505

  length of vectors
     4.597849902  4.597849902  7.270638344     0.251139242  0.251139242  0.137539505


 FORCES acting on ions
    electron-ion (+dipol)            ewald-force                    non-local-force                 convergence-correction
 -----------------------------------------------------------------------------------------------
   -.127E-06 0.237E-14 0.577E-07   -.902E-06 -.216E-12 0.389E-06   -.137E-24 0.275E-24 0.000E+00   -.247E-10 0.192E-15 0.137E-08
   -.143E-05 0.167E-05 0.217E+01   -.167E-05 -.208E-05 -.230E+01   -.416E-16 0.277E-19 0.137E+00   -.315E-09 0.186E-09 0.265E-03
   -.365E-06 -.167E-05 -.217E+01   0.175E-05 0.208E-05 0.230E+01   0.486E-16 -.277E-19 -.137E+00   0.321E-09 -.186E-09 -.265E-03
   0.305E-06 -.138E-04 -.265E+01   -.171E-05 -.257E-05 0.752E+00   0.345E-16 -.135E-16 0.190E+01   -.960E-10 -.212E-09 -.168E-02
   0.233E-04 0.138E-04 0.265E+01   0.252E-05 0.257E-05 -.752E+00   -.553E-16 0.135E-16 -.190E+01   0.338E-09 0.212E-09 0.168E-02
 -----------------------------------------------------------------------------------------------
   0.216E-04 0.250E-11 -.377E-04   0.260E-15 0.310E-15 0.000E+00   -.139E-16 -.461E-23 0.000E+00   0.223E-09 0.721E-14 0.409E-09
 
 
 POSITION                                       TOTAL-FORCE (eV/Angst)
 -----------------------------------------------------------------------------------
     -0.00000     -0.00000      0.00000        -0.000000     -0.000000      0.000000
     -0.00000      2.65457      4.59531        -0.000000      0.000000      0.000955
      2.29892      1.32728      2.67533         0.000000     -0.000000     -0.000955
     -0.00000      2.65457      1.63863        -0.000000     -0.000000      0.000192
      2.29892      1.32728      5.63201         0.000000      0.000000     -0.000192
 -----------------------------------------------------------------------------------
    total drift:                                0.000022      0.000000     -0.000038


--------------------------------------------------------------------------------------------------------



  FREE ENERGIE OF THE ION-ELECTRON SYSTEM (eV)
  ---------------------------------------------------
  free  energy   TOTEN  =       -14.64480485 eV

  energy  without entropy=      -14.64479116  energy(sigma->0) =      -14.64479801
 
 d Force = 0.1326990E-05[-0.199E-05, 0.464E-05]  d Energy = 0.2054079E-04-0.192E-04
 d Force = 0.4920539E-02[ 0.491E-02, 0.493E-02]  d Ewald  =-0.1247009E+00 0.130E+00


--------------------------------------------------------------------------------------------------------


    POTLOK:  cpu time    0.0093: real time    0.0093


--------------------------------------------------------------------------------------------------------


 Conjugate gradient step on ions:
 trial-energy change:   -0.000021  1 .order   -0.000016   -0.000030   -0.000002
  (g-gl).g = 0.173E-04      g.g   = 0.154E-04  gl.gl    = 0.425E-04
 g(Force)  = 0.652E-06   g(Stress)= 0.147E-04 ortho     =-0.182E-05
 gamma     =   0.40687
 trial     =   2.05501
 opt step  =   2.18728  (harmonic =   2.18728) maximal distance =0.00111597
 next E    =   -14.644800   (d E  =  -0.00002)


--------------------------------------------------------------------------------------------------------


  
 reached required accuracy - stopping structural energy minimisation
     LOOP+:  cpu time    0.6587: real time    0.6680
    4ORBIT:  cpu time    0.0000: real time    0.0000

 total amount of memory used by VASP MPI-rank0    31808. kBytes
=======================================================================

   base      :      30000. kBytes
   nonl-proj :       1075. kBytes
   fftplans  :        182. kBytes
   grid      :        267. kBytes
   one-center:          8. kBytes
   wavefun   :        276. kBytes
 
  
  
 General timing and accounting informations for this job:
 ========================================================
  
                  Total CPU time used (sec):       10.360
                            User time (sec):        9.329
                          System time (sec):        1.031
                         Elapsed time (sec):       11.653
  
                   Maximum memory used (kb):       70544.
                   Average memory used (kb):           0.
  
                          Minor page faults:        17802
                          Major page faults:            0
                 Voluntary context switches:         1790
