    5    5    1    1
  0.2662213E+02  0.4597850E-09  0.4597850E-09  0.7270638E-09  0.5000000E-15
  1.000000000000000E-004
  CAR 
                                         
     16    210    240
 
  0.0000000E+00  0.0000000E+00  0.0000000E+00  0.4761905E-02
    1       -5.885294   1.000000
    2       -4.665172   1.000000
    3       -0.518335   1.000000
    4        3.263613   1.000000
    5        3.263622   1.000000
    6        3.956553   1.000000
    7        3.956554   1.000000
    8        4.350521   0.999844
    9        5.353397   0.000000
   10        5.521359   0.000000
   11        7.375051   0.000000
   12        7.375056   0.000000
   13        8.168791   0.000000
   14        8.380685   0.000000
   15        8.380689   0.000000
   16        9.292295   0.000000
   17        9.360678   0.000000
   18        9.360683   0.000000
   19        9.814333   0.000000
   20        9.814343   0.000000
   21       10.079094   0.000000
   22       10.878643   0.000000
   23       11.137706   0.000000
   24       15.232031   0.000000
   25       15.232044   0.000000
   26       16.043391   0.000000
   27       16.043407   0.000000
   28       16.294542   0.000000
   29       16.308743   0.000000
   30       16.710653   0.000000
   31       16.710664   0.000000
   32       17.207052   0.000000
   33       17.207059   0.000000
   34       19.263817   0.000000
   35       19.405342   0.000000
   36       21.330347   0.000000
   37       21.657656   0.000000
   38       22.354850   0.000000
   39       22.354857   0.000000
   40       23.232995   0.000000
   41       23.518017   0.000000
   42       23.518017   0.000000
   43       23.748874   0.000000
   44       23.748876   0.000000
   45       24.179473   0.000000
   46       24.179474   0.000000
   47       24.467168   0.000000
   48       24.624023   0.000000
   49       25.240885   0.000000
   50       25.559371   0.000000
   51       25.559379   0.000000
   52       25.738086   0.000000
   53       25.738088   0.000000
   54       26.332436   0.000000
   55       26.332440   0.000000
   56       27.587657   0.000000
   57       28.399221   0.000000
   58       28.464667   0.000000
   59       28.464668   0.000000
   60       28.628478   0.000000
   61       28.628481   0.000000
   62       29.356575   0.000000
   63       29.356585   0.000000
   64       29.670154   0.000000
   65       29.670158   0.000000
   66       30.184648   0.000000
   67       30.184659   0.000000
   68       30.630604   0.000000
   69       30.720628   0.000000
   70       31.589605   0.000000
   71       31.699162   0.000000
   72       32.164889   0.000000
   73       32.164894   0.000000
   74       32.493759   0.000000
   75       32.493760   0.000000
   76       32.737789   0.000000
   77       33.279065   0.000000
   78       34.416578   0.000000
   79       34.416584   0.000000
   80       34.569649   0.000000
   81       34.569650   0.000000
   82       34.784789   0.000000
   83       34.825333   0.000000
   84       34.965754   0.000000
   85       34.965757   0.000000
   86       35.493821   0.000000
   87       35.619842   0.000000
   88       35.648718   0.000000
   89       35.648721   0.000000
   90       35.699808   0.000000
   91       36.553041   0.000000
   92       36.553043   0.000000
   93       37.183451   0.000000
   94       37.462279   0.000000
   95       37.462282   0.000000
   96       38.070781   0.000000
   97       38.070782   0.000000
   98       38.273636   0.000000
   99       38.889305   0.000000
  100       39.598659   0.000000
  101       39.598666   0.000000
  102       39.854355   0.000000
  103       40.805879   0.000000
  104       40.805887   0.000000
  105       41.162002   0.000000
  106       41.660155   0.000000
  107       41.660156   0.000000
  108       42.637356   0.000000
  109       42.764935   0.000000
  110       42.764936   0.000000
  111       43.140579   0.000000
  112       43.714918   0.000000
  113       43.714936   0.000000
  114       45.431943   0.000000
  115       45.431946   0.000000
  116       45.730775   0.000000
  117       46.209931   0.000000
  118       46.489855   0.000000
  119       46.489879   0.000000
  120       46.738633   0.000000
  121       46.738642   0.000000
  122       47.675654   0.000000
  123       47.832185   0.000000
  124       48.212527   0.000000
  125       48.212539   0.000000
  126       48.561950   0.000000
  127       48.561963   0.000000
  128       48.646460   0.000000
  129       48.828137   0.000000
  130       48.987244   0.000000
  131       49.159265   0.000000
  132       49.159489   0.000000
  133       49.663270   0.000000
  134       49.663348   0.000000
  135       49.771718   0.000000
  136       49.880447   0.000000
  137       49.992772   0.000000
  138       49.992892   0.000000
  139       50.191878   0.000000
  140       50.192014   0.000000
  141       50.687986   0.000000
  142       50.870269   0.000000
  143       50.870334   0.000000
  144       51.093887   0.000000
  145       51.093915   0.000000
  146       51.166116   0.000000
  147       52.070304   0.000000
  148       52.070320   0.000000
  149       53.239667   0.000000
  150       53.897015   0.000000
  151       54.050227   0.000000
  152       54.173923   0.000000
  153       54.451678   0.000000
  154       54.451692   0.000000
  155       54.777084   0.000000
  156       54.777093   0.000000
  157       55.373418   0.000000
  158       55.373435   0.000000
  159       55.792776   0.000000
  160       56.274490   0.000000
  161       57.092689   0.000000
  162       57.381800   0.000000
  163       57.381817   0.000000
  164       57.573377   0.000000
  165       58.199407   0.000000
  166       58.199426   0.000000
  167       58.727140   0.000000
  168       59.057367   0.000000
  169       59.741706   0.000000
  170       59.741711   0.000000
  171       60.479569   0.000000
  172       60.479572   0.000000
  173       61.146852   0.000000
  174       61.433799   0.000000
  175       61.433802   0.000000
  176       61.695067   0.000000
  177       61.874420   0.000000
  178       61.874438   0.000000
  179       62.186161   0.000000
  180       62.186745   0.000000
  181       62.186753   0.000000
  182       62.211587   0.000000
  183       62.406925   0.000000
  184       62.927509   0.000000
  185       62.927512   0.000000
  186       62.980110   0.000000
  187       62.980122   0.000000
  188       63.526454   0.000000
  189       64.171759   0.000000
  190       64.171769   0.000000
  191       65.159316   0.000000
  192       65.159331   0.000000
  193       65.312490   0.000000
  194       65.634041   0.000000
  195       65.735626   0.000000
  196       65.735632   0.000000
  197       66.054003   0.000000
  198       66.831686   0.000000
  199       66.831718   0.000000
  200       66.905272   0.000000
  201       66.905292   0.000000
  202       67.282470   0.000000
  203       67.282496   0.000000
  204       67.762650   0.000000
  205       68.129526   0.000000
  206       68.537384   0.000000
  207       68.714026   0.000000
  208       68.714192   0.000000
  209       68.833633   0.000000
  210       68.838515   0.000000
  211       69.062433   0.000000
  212       69.062525   0.000000
  213       69.402039   0.000000
  214       70.064305   0.000000
  215       70.204854   0.000000
  216       70.205000   0.000000
  217       70.551248   0.000000
  218       70.622861   0.000000
  219       71.214714   0.000000
  220       71.215370   0.000000
  221       71.723529   0.000000
  222       71.724690   0.000000
  223       72.057359   0.000000
  224       72.062748   0.000000
  225       72.487893   0.000000
  226       72.988883   0.000000
  227       73.209517   0.000000
  228       73.254438   0.000000
  229       73.436967   0.000000
  230       73.455218   0.000000
  231       73.535405   0.000000
  232       73.559724   0.000000
  233       74.005539   0.000000
  234       74.020426   0.000000
  235       74.215730   0.000000
  236       74.399455   0.000000
  237       74.629268   0.000000
  238       74.915772   0.000000
  239       75.009943   0.000000
  240       75.225364   0.000000
 
  0.1724138E-01  0.0000000E+00  0.0000000E+00  0.4761905E-02
    1       -5.883275   1.000000
    2       -4.663962   1.000000
    3       -0.515787   1.000000
    4        3.238002   1.000000
    5        3.256541   1.000000
    6        3.927429   1.000000
    7        3.957688   1.000000
    8        4.347915   0.999883
    9        5.384594   0.000000
   10        5.543895   0.000000
   11        7.353352   0.000000
   12        7.379638   0.000000
   13        8.178855   0.000000
   14        8.363098   0.000000
   15        8.383183   0.000000
   16        9.299652   0.000000
   17        9.333116   0.000000
   18        9.342498   0.000000
   19        9.823683   0.000000
   20        9.846412   0.000000
   21       10.102811   0.000000
   22       10.903227   0.000000
   23       11.165747   0.000000
   24       15.187655   0.000000
   25       15.220071   0.000000
   26       15.961623   0.000000
   27       16.027868   0.000000
   28       16.340217   0.000000
   29       16.351994   0.000000
   30       16.716414   0.000000
   31       16.729789   0.000000
   32       17.224702   0.000000
   33       17.226015   0.000000
   34       19.280597   0.000000
   35       19.408313   0.000000
   36       21.334096   0.000000
   37       21.660603   0.000000
   38       22.224639   0.000000
   39       22.319958   0.000000
   40       23.319267   0.000000
   41       23.491911   0.000000
   42       23.501054   0.000000
   43       23.697942   0.000000
   44       23.713832   0.000000
   45       24.186872   0.000000
   46       24.189300   0.000000
   47       24.510736   0.000000
   48       24.705591   0.000000
   49       25.182859   0.000000
   50       25.516103   0.000000
   51       25.522440   0.000000
   52       25.775731   0.000000
   53       25.834972   0.000000
   54       26.311145   0.000000
   55       26.326645   0.000000
   56       27.567330   0.000000
   57       28.436377   0.000000
   58       28.454792   0.000000
   59       28.460673   0.000000
   60       28.608742   0.000000
   61       28.634424   0.000000
   62       29.325714   0.000000
   63       29.343187   0.000000
   64       29.695629   0.000000
   65       29.701615   0.000000
   66       30.110526   0.000000
   67       30.184554   0.000000
   68       30.706059   0.000000
   69       30.728817   0.000000
   70       31.586865   0.000000
   71       31.703781   0.000000
   72       32.101092   0.000000
   73       32.104017   0.000000
   74       32.532738   0.000000
   75       32.541977   0.000000
   76       32.757412   0.000000
   77       33.282065   0.000000
   78       34.343637   0.000000
   79       34.393644   0.000000
   80       34.479866   0.000000
   81       34.516963   0.000000
   82       34.771445   0.000000
   83       34.782767   0.000000
   84       34.978707   0.000000
   85       35.014844   0.000000
   86       35.546436   0.000000
   87       35.644792   0.000000
   88       35.688684   0.000000
   89       35.717877   0.000000
   90       35.754606   0.000000
   91       36.543688   0.000000
   92       36.565757   0.000000
   93       37.221088   0.000000
   94       37.436085   0.000000
   95       37.468450   0.000000
   96       37.910728   0.000000
   97       38.072875   0.000000
   98       38.456080   0.000000
   99       38.903739   0.000000
  100       39.582419   0.000000
  101       39.619685   0.000000
  102       39.884758   0.000000
  103       40.802757   0.000000
  104       40.806155   0.000000
  105       41.170906   0.000000
  106       41.653981   0.000000
  107       41.656349   0.000000
  108       42.640700   0.000000
  109       42.737365   0.000000
  110       42.754225   0.000000
  111       43.169346   0.000000
  112       43.704094   0.000000
  113       43.705448   0.000000
  114       45.427252   0.000000
  115       45.432620   0.000000
  116       45.734837   0.000000
  117       46.117241   0.000000
  118       46.455712   0.000000
  119       46.584586   0.000000
  120       46.740385   0.000000
  121       46.756574   0.000000
  122       47.707992   0.000000
  123       47.833001   0.000000
  124       48.126804   0.000000
  125       48.225637   0.000000
  126       48.563903   0.000000
  127       48.569221   0.000000
  128       48.656088   0.000000
  129       48.905326   0.000000
  130       48.957897   0.000000
  131       49.155533   0.000000
  132       49.181008   0.000000
  133       49.648777   0.000000
  134       49.654158   0.000000
  135       49.762245   0.000000
  136       49.876737   0.000000
  137       50.014809   0.000000
  138       50.015444   0.000000
  139       50.196502   0.000000
  140       50.202507   0.000000
  141       50.682423   0.000000
  142       50.824535   0.000000
  143       50.846810   0.000000
  144       51.111660   0.000000
  145       51.132737   0.000000
  146       51.140583   0.000000
  147       52.063066   0.000000
  148       52.112134   0.000000
  149       53.273724   0.000000
  150       53.913131   0.000000
  151       53.991029   0.000000
  152       54.167344   0.000000
  153       54.423265   0.000000
  154       54.493494   0.000000
  155       54.777167   0.000000
  156       54.803697   0.000000
  157       55.363226   0.000000
  158       55.386287   0.000000
  159       55.762832   0.000000
  160       56.269403   0.000000
  161       56.994729   0.000000
  162       57.388076   0.000000
  163       57.504089   0.000000
  164       57.549548   0.000000
  165       58.175710   0.000000
  166       58.179559   0.000000
  167       58.736248   0.000000
  168       59.078608   0.000000
  169       59.661327   0.000000
  170       59.733855   0.000000
  171       60.402102   0.000000
  172       60.447898   0.000000
  173       61.193952   0.000000
  174       61.383051   0.000000
  175       61.408775   0.000000
  176       61.488769   0.000000
  177       61.730376   0.000000
  178       61.854107   0.000000
  179       62.063331   0.000000
  180       62.156236   0.000000
  181       62.241429   0.000000
  182       62.316162   0.000000
  183       62.447617   0.000000
  184       62.914534   0.000000
  185       62.978114   0.000000
  186       63.145685   0.000000
  187       63.223681   0.000000
  188       63.549165   0.000000
  189       64.124530   0.000000
  190       64.201691   0.000000
  191       65.085585   0.000000
  192       65.139933   0.000000
  193       65.299362   0.000000
  194       65.340925   0.000000
  195       65.709741   0.000000
  196       65.966661   0.000000
  197       66.084615   0.000000
  198       66.872593   0.000000
  199       66.878034   0.000000
  200       66.910930   0.000000
  201       67.000098   0.000000
  202       67.292522   0.000000
  203       67.298407   0.000000
  204       67.774826   0.000000
  205       68.108793   0.000000
  206       68.399702   0.000000
  207       68.594980   0.000000
  208       68.795893   0.000000
  209       68.822803   0.000000
  210       68.832209   0.000000
  211       69.070246   0.000000
  212       69.099507   0.000000
  213       69.497956   0.000000
  214       70.041343   0.000000
  215       70.101813   0.000000
  216       70.172360   0.000000
  217       70.626048   0.000000
  218       70.669787   0.000000
  219       71.262673   0.000000
  220       71.267765   0.000000
  221       71.702122   0.000000
  222       71.704394   0.000000
  223       72.088232   0.000000
  224       72.104712   0.000000
  225       72.493400   0.000000
  226       72.889700   0.000000
  227       72.912946   0.000000
  228       73.102170   0.000000
  229       73.351328   0.000000
  230       73.484124   0.000000
  231       73.525393   0.000000
  232       73.636721   0.000000
  233       73.967710   0.000000
  234       74.055146   0.000000
  235       74.334313   0.000000
  236       74.701724   0.000000
  237       74.782519   0.000000
  238       74.821793   0.000000
  239       75.168993   0.000000
  240       75.400116   0.000000
 
  0.3448276E-01  0.0000000E+00  0.0000000E+00  0.4761905E-02
    1       -5.877203   1.000000
    2       -4.660344   1.000000
    3       -0.508141   1.000000
    4        3.164552   1.000000
    5        3.235880   1.000000
    6        3.847045   1.000000
    7        3.960600   1.000000
    8        4.340040   0.999952
    9        5.470050   0.000000
   10        5.608443   0.000000
   11        7.293701   0.000000
   12        7.393410   0.000000
   13        8.206593   0.000000
   14        8.313341   0.000000
   15        8.389431   0.000000
   16        9.212884   0.000000
   17        9.302536   0.000000
   18        9.373830   0.000000
   19        9.838523   0.000000
   20        9.929168   0.000000
   21       10.173233   0.000000
   22       10.974912   0.000000
   23       11.245926   0.000000
   24       15.070939   0.000000
   25       15.185587   0.000000
   26       15.804948   0.000000
   27       15.985084   0.000000
   28       16.405192   0.000000
   29       16.435810   0.000000
   30       16.746450   0.000000
   31       16.783863   0.000000
   32       17.275711   0.000000
   33       17.284187   0.000000
   34       19.330151   0.000000
   35       19.416164   0.000000
   36       21.345219   0.000000
   37       21.669419   0.000000
   38       21.941173   0.000000
   39       22.222491   0.000000
   40       23.285013   0.000000
   41       23.433506   0.000000
   42       23.438203   0.000000
   43       23.640711   0.000000
   44       23.806105   0.000000
   45       24.163731   0.000000
   46       24.206711   0.000000
   47       24.628310   0.000000
   48       24.886661   0.000000
   49       25.045306   0.000000
   50       25.446069   0.000000
   51       25.490829   0.000000
   52       25.844487   0.000000
   53       26.007460   0.000000
   54       26.254937   0.000000
   55       26.310412   0.000000
   56       27.509452   0.000000
   57       28.424938   0.000000
   58       28.448533   0.000000
   59       28.507998   0.000000
   60       28.550269   0.000000
   61       28.680415   0.000000
   62       29.269004   0.000000
   63       29.318086   0.000000
   64       29.683652   0.000000
   65       29.756074   0.000000
   66       30.052994   0.000000
   67       30.186037   0.000000
   68       30.746715   0.000000
   69       30.840877   0.000000
   70       31.569536   0.000000
   71       31.708242   0.000000
   72       31.960608   0.000000
   73       32.030318   0.000000
   74       32.576465   0.000000
   75       32.602829   0.000000
   76       32.824611   0.000000
   77       33.298438   0.000000
   78       34.182876   0.000000
   79       34.289429   0.000000
   80       34.305556   0.000000
   81       34.380142   0.000000
   82       34.726469   0.000000
   83       34.754999   0.000000
   84       35.020147   0.000000
   85       35.088940   0.000000
   86       35.628702   0.000000
   87       35.704139   0.000000
   88       35.704941   0.000000
   89       35.878510   0.000000
   90       35.988871   0.000000
   91       36.525459   0.000000
   92       36.611271   0.000000
   93       37.269094   0.000000
   94       37.424454   0.000000
   95       37.482698   0.000000
   96       37.727788   0.000000
   97       38.085366   0.000000
   98       38.690620   0.000000
   99       38.948286   0.000000
  100       39.557836   0.000000
  101       39.680276   0.000000
  102       39.961197   0.000000
  103       40.794838   0.000000
  104       40.807352   0.000000
  105       41.195522   0.000000
  106       41.638562   0.000000
  107       41.644729   0.000000
  108       42.632496   0.000000
  109       42.686498   0.000000
  110       42.722642   0.000000
  111       43.239805   0.000000
  112       43.677401   0.000000
  113       43.677900   0.000000
  114       45.408273   0.000000
  115       45.434035   0.000000
  116       45.749270   0.000000
  117       45.970304   0.000000
  118       46.368756   0.000000
  119       46.699840   0.000000
  120       46.738819   0.000000
  121       46.846333   0.000000
  122       47.793031   0.000000
  123       47.833238   0.000000
  124       47.951877   0.000000
  125       48.268977   0.000000
  126       48.560357   0.000000
  127       48.572541   0.000000
  128       48.686528   0.000000
  129       48.920867   0.000000
  130       49.040717   0.000000
  131       49.162744   0.000000
  132       49.204666   0.000000
  133       49.630473   0.000000
  134       49.644600   0.000000
  135       49.735142   0.000000
  136       49.863992   0.000000
  137       50.053601   0.000000
  138       50.055038   0.000000
  139       50.220739   0.000000
  140       50.227904   0.000000
  141       50.683350   0.000000
  142       50.732174   0.000000
  143       50.813658   0.000000
  144       51.060678   0.000000
  145       51.134588   0.000000
  146       51.226733   0.000000
  147       52.047712   0.000000
  148       52.220178   0.000000
  149       53.364364   0.000000
  150       53.874870   0.000000
  151       53.957790   0.000000
  152       54.145298   0.000000
  153       54.350437   0.000000
  154       54.524269   0.000000
  155       54.770441   0.000000
  156       54.921161   0.000000
  157       55.335856   0.000000
  158       55.418570   0.000000
  159       55.674430   0.000000
  160       56.250731   0.000000
  161       56.860717   0.000000
  162       57.407610   0.000000
  163       57.474754   0.000000
  164       57.713675   0.000000
  165       58.100831   0.000000
  166       58.138033   0.000000
  167       58.760937   0.000000
  168       59.112065   0.000000
  169       59.451120   0.000000
  170       59.710939   0.000000
  171       60.265084   0.000000
  172       60.354872   0.000000
  173       61.007491   0.000000
  174       61.120686   0.000000
  175       61.282613   0.000000
  176       61.458778   0.000000
  177       61.507861   0.000000
  178       61.795057   0.000000
  179       61.983022   0.000000
  180       62.024798   0.000000
  181       62.287312   0.000000
  182       62.308966   0.000000
  183       62.764786   0.000000
  184       62.882653   0.000000
  185       63.186805   0.000000
  186       63.469689   0.000000
  187       63.551372   0.000000
  188       63.630431   0.000000
  189       64.059552   0.000000
  190       64.291770   0.000000
  191       64.848973   0.000000
  192       65.075538   0.000000
  193       65.125568   0.000000
  194       65.266585   0.000000
  195       65.659563   0.000000
  196       65.865435   0.000000
  197       66.466025   0.000000
  198       66.795374   0.000000
  199       66.903967   0.000000
  200       66.985694   0.000000
  201       67.158177   0.000000
  202       67.340054   0.000000
  203       67.528454   0.000000
  204       67.800144   0.000000
  205       67.996088   0.000000
  206       68.329378   0.000000
  207       68.343758   0.000000
  208       68.708481   0.000000
  209       68.788589   0.000000
  210       68.810727   0.000000
  211       69.180722   0.000000
  212       69.183162   0.000000
  213       69.689077   0.000000
  214       69.804070   0.000000
  215       70.123254   0.000000
  216       70.187482   0.000000
  217       70.630639   0.000000
  218       70.807184   0.000000
  219       71.346580   0.000000
  220       71.392154   0.000000
  221       71.644728   0.000000
  222       71.685420   0.000000
  223       72.172958   0.000000
  224       72.198505   0.000000
  225       72.363899   0.000000
  226       72.508806   0.000000
  227       72.804355   0.000000
  228       72.946045   0.000000
  229       73.143777   0.000000
  230       73.505775   0.000000
  231       73.531965   0.000000
  232       73.754566   0.000000
  233       73.970940   0.000000
  234       74.132758   0.000000
  235       74.375099   0.000000
  236       74.696000   0.000000
  237       74.797730   0.000000
  238       74.975567   0.000000
  239       75.134156   0.000000
  240       75.419403   0.000000
 
  0.5172414E-01  0.0000000E+00  0.0000000E+00  0.4761905E-02
    1       -5.867093   1.000000
    2       -4.654357   1.000000
    3       -0.495415   1.000000
    4        3.051681   1.000000
    5        3.203168   1.000000
    6        3.730185   1.000000
    7        3.964044   1.000000
    8        4.326745   0.999991
    9        5.591798   0.000000
   10        5.707004   0.000000
   11        7.208965   0.000000
   12        7.416365   0.000000
   13        8.236151   0.000000
   14        8.250001   0.000000
   15        8.395959   0.000000
   16        9.080336   0.000000
   17        9.264379   0.000000
   18        9.450137   0.000000
   19        9.850859   0.000000
   20       10.042192   0.000000
   21       10.285382   0.000000
   22       11.086070   0.000000
   23       11.369738   0.000000
   24       14.910886   0.000000
   25       15.132227   0.000000
   26       15.628608   0.000000
   27       15.923149   0.000000
   28       16.441683   0.000000
   29       16.495837   0.000000
   30       16.831932   0.000000
   31       16.865846   0.000000
   32       17.355316   0.000000
   33       17.381539   0.000000
   34       19.409720   0.000000
   35       19.426265   0.000000
   36       21.363280   0.000000
   37       21.605823   0.000000
   38       21.683972   0.000000
   39       22.080203   0.000000
   40       22.994701   0.000000
   41       23.301845   0.000000
   42       23.471965   0.000000
   43       23.588821   0.000000
   44       23.986612   0.000000
   45       24.170035   0.000000
   46       24.212721   0.000000
   47       24.793091   0.000000
   48       24.884746   0.000000
   49       25.036686   0.000000
   50       25.440259   0.000000
   51       25.468248   0.000000
   52       25.919997   0.000000
   53       26.179822   0.000000
   54       26.190778   0.000000
   55       26.286980   0.000000
   56       27.420737   0.000000
   57       28.375213   0.000000
   58       28.429162   0.000000
   59       28.457494   0.000000
   60       28.527540   0.000000
   61       28.822903   0.000000
   62       29.219031   0.000000
   63       29.305703   0.000000
   64       29.505821   0.000000
   65       29.823668   0.000000
   66       30.151731   0.000000
   67       30.195622   0.000000
   68       30.762294   0.000000
   69       30.956133   0.000000
   70       31.517665   0.000000
   71       31.709958   0.000000
   72       31.794060   0.000000
   73       32.039696   0.000000
   74       32.552194   0.000000
   75       32.665301   0.000000
   76       32.876751   0.000000
   77       33.349681   0.000000
   78       34.019710   0.000000
   79       34.039278   0.000000
   80       34.134160   0.000000
   81       34.295904   0.000000
   82       34.658914   0.000000
   83       34.767585   0.000000
   84       35.089393   0.000000
   85       35.150654   0.000000
   86       35.545755   0.000000
   87       35.768691   0.000000
   88       35.873771   0.000000
   89       36.069580   0.000000
   90       36.262806   0.000000
   91       36.514356   0.000000
   92       36.703770   0.000000
   93       37.169045   0.000000
   94       37.497954   0.000000
   95       37.557065   0.000000
   96       37.640461   0.000000
   97       38.122880   0.000000
   98       38.839554   0.000000
   99       39.029346   0.000000
  100       39.574287   0.000000
  101       39.773915   0.000000
  102       40.067079   0.000000
  103       40.784608   0.000000
  104       40.810565   0.000000
  105       41.231631   0.000000
  106       41.622919   0.000000
  107       41.624765   0.000000
  108       42.549954   0.000000
  109       42.671805   0.000000
  110       42.692815   0.000000
  111       43.324670   0.000000
  112       43.631783   0.000000
  113       43.656486   0.000000
  114       45.367583   0.000000
  115       45.434096   0.000000
  116       45.774808   0.000000
  117       45.838898   0.000000
  118       46.254240   0.000000
  119       46.724637   0.000000
  120       46.754863   0.000000
  121       47.011891   0.000000
  122       47.767913   0.000000
  123       47.833939   0.000000
  124       47.905159   0.000000
  125       48.337484   0.000000
  126       48.545982   0.000000
  127       48.561788   0.000000
  128       48.710775   0.000000
  129       48.945351   0.000000
  130       49.061962   0.000000
  131       49.196421   0.000000
  132       49.256325   0.000000
  133       49.627284   0.000000
  134       49.677235   0.000000
  135       49.700259   0.000000
  136       49.842714   0.000000
  137       50.059514   0.000000
  138       50.086876   0.000000
  139       50.245165   0.000000
  140       50.260026   0.000000
  141       50.670130   0.000000
  142       50.729180   0.000000
  143       50.794091   0.000000
  144       50.974019   0.000000
  145       51.140122   0.000000
  146       51.319673   0.000000
  147       52.036354   0.000000
  148       52.363313   0.000000
  149       53.483031   0.000000
  150       53.753295   0.000000
  151       54.008193   0.000000
  152       54.101146   0.000000
  153       54.272137   0.000000
  154       54.511285   0.000000
  155       54.743089   0.000000
  156       55.109581   0.000000
  157       55.302411   0.000000
  158       55.467587   0.000000
  159       55.532890   0.000000
  160       56.212898   0.000000
  161       56.773253   0.000000
  162       57.352526   0.000000
  163       57.441870   0.000000
  164       57.903192   0.000000
  165       57.965371   0.000000
  166       58.119517   0.000000
  167       58.792389   0.000000
  168       59.096994   0.000000
  169       59.174671   0.000000
  170       59.668539   0.000000
  171       60.177697   0.000000
  172       60.206673   0.000000
  173       60.572045   0.000000
  174       60.890581   0.000000
  175       60.896392   0.000000