 vasp.5.4.4.18Apr17-6-g9f103f2a35 (build May 24 2018 15:12:59) complex          
  
 executed on             LinuxIFC date 2021.02.16  09:58:51
 running on   80 total cores
 distrk:  each k-point on   80 cores,    1 groups
 distr:  one band on NCORES_PER_BAND=  10 cores,    8 groups


--------------------------------------------------------------------------------------------------------


 INCAR:
 POTCAR:    PAW_PBE Mg 13Apr2007                  
 POTCAR:    PAW_PBE Sb 06Sep2000                  
 POTCAR:    PAW_PBE Mg 13Apr2007                  
   VRHFIN =Mg: s2p0                                                             
   LEXCH  = PE                                                                  
   EATOM  =    23.0369 eV,    1.6932 Ry                                         
                                                                                
   TITEL  = PAW_PBE Mg 13Apr2007                                                
   LULTRA =        F    use ultrasoft PP ?                                      
   IUNSCR =        1    unscreen: 0-lin 1-nonlin 2-no                           
   RPACOR =    1.500    partial core radius                                     
   POMASS =   24.305; ZVAL   =    2.000    mass and valenz                      
   RCORE  =    2.000    outmost cutoff radius                                   
   RWIGS  =    2.880; RWIGS  =    1.524    wigner-seitz radius (au A)           
   ENMAX  =  126.143; ENMIN  =   94.607 eV                                      
   RCLOC  =    1.506    cutoff for local pot                                    
   LCOR   =        T    correct aug charges                                     
   LPAW   =        T    paw PP                                                  
   EAUG   =  454.734                                                            
   DEXC   =    0.000                                                            
   RMAX   =    2.045    core radius for proj-oper                               
   RAUG   =    1.300    factor for augmentation sphere                          
   RDEP   =    2.025    radius for radial grids                                 
   RDEPT  =    1.942    core radius for aug-charge                              
                                                                                
   Atomic configuration                                                         
    6 entries                                                                   
     n  l   j            E        occ.                                          
     1  0  0.50     -1259.6230   2.0000                                         
     2  0  0.50       -79.8442   2.0000                                         
     2  1  1.50       -46.6121   6.0000                                         
     3  0  0.50        -4.7055   2.0000                                         
     3  1  0.50        -1.3660   0.0000                                         
     3  2  1.50        -1.3606   0.0000                                         
   Description                                                                  
     l       E           TYP  RCUT    TYP  RCUT                                 
     0     -4.7054661     23  2.000                                             
     0     27.2116520     23  2.000                                             
     1      1.3605826     23  2.000                                             
     1     27.2116520     23  2.000                                             
     2     -1.3605826     23  2.000                                             
  local pseudopotential read in
  partial core-charges read in
  partial kinetic energy density read in
  atomic valenz-charges read in
  non local Contribution for L=           0  read in
    real space projection operators read in
  non local Contribution for L=           0  read in
    real space projection operators read in
  non local Contribution for L=           1  read in
    real space projection operators read in
  non local Contribution for L=           1  read in
    real space projection operators read in
  non local Contribution for L=           2  read in
    real space projection operators read in
    PAW grid and wavefunctions read in
 
   number of l-projection  operators is LMAX  =           5
   number of lm-projection operators is LMMAX =          13
 
 POTCAR:    PAW_PBE Sb 06Sep2000                  
   VRHFIN =Sb: s2p3                                                             
   LEXCH  = PE                                                                  
   EATOM  =   149.9515 eV,   11.0211 Ry                                         
                                                                                
   TITEL  = PAW_PBE Sb 06Sep2000                                                
   LULTRA =        F    use ultrasoft PP ?                                      
   IUNSCR =        1    unscreen: 0-lin 1-nonlin 2-no                           
   RPACOR =    2.200    partial core radius                                     
   POMASS =  121.750; ZVAL   =    5.000    mass and valenz                      
   RCORE  =    2.300    outmost cutoff radius                                   
   RWIGS  =    2.980; RWIGS  =    1.577    wigner-seitz radius (au A)           
   ENMAX  =  172.069; ENMIN  =  129.052 eV                                      
   ICORE  =        3    local potential                                         
   LCOR   =        T    correct aug charges                                     
   LPAW   =        T    paw PP                                                  
   EAUG   =  380.513                                                            
   DEXC   =    0.000                                                            
   RMAX   =    2.346    core radius for proj-oper                               
   RAUG   =    1.300    factor for augmentation sphere                          
   RDEP   =    2.360    radius for radial grids                                 
   RDEPT  =    2.192    core radius for aug-charge                              
                                                                                
   Atomic configuration                                                         
   13 entries                                                                   
     n  l   j            E        occ.                                          
     1  0  0.50    -30298.2797   2.0000                                         
     2  0  0.50     -4610.2252   2.0000                                         
     2  1  1.50     -4138.3407   6.0000                                         
     3  0  0.50      -903.8815   2.0000                                         
     3  1  1.50      -750.1337   6.0000                                         
     3  2  2.50      -515.7092  10.0000                                         
     4  0  0.50      -148.8034   2.0000                                         
     4  1  1.50      -101.7581   6.0000                                         
     4  2  2.50       -33.5048  10.0000                                         
     5  0  0.50       -12.8298   2.0000                                         
     5  1  0.50        -4.8276   3.0000                                         
     5  2  1.50        -4.0817   0.0000                                         
     4  3  2.50        -4.0817   0.0000                                         
   Description                                                                  
     l       E           TYP  RCUT    TYP  RCUT                                 
     0    -12.8297861     23  2.300                                             
     0     13.6058260     23  2.300                                             
     1     -4.8275512     23  2.300                                             
     1     -0.7245443     23  2.300                                             
     2     -4.0817478     23  2.300                                             
     3     -1.3605826     23  2.300                                             
  local pseudopotential read in
  partial core-charges read in
  partial kinetic energy density read in
  atomic valenz-charges read in
  non local Contribution for L=           0  read in
    real space projection operators read in
  non local Contribution for L=           0  read in
    real space projection operators read in
  non local Contribution for L=           1  read in
    real space projection operators read in
  non local Contribution for L=           1  read in
    real space projection operators read in
  non local Contribution for L=           2  read in
    real space projection operators read in
    PAW grid and wavefunctions read in
 
   number of l-projection  operators is LMAX  =           5
   number of lm-projection operators is LMMAX =          13
 
  PAW_PBE Mg 13Apr2007                  :
 energy of atom  1       EATOM=  -23.0369
 kinetic energy error for atom=    0.0001 (will be added to EATOM!!)
  PAW_PBE Sb 06Sep2000                  :
 energy of atom  2       EATOM= -149.9515
 kinetic energy error for atom=    0.0008 (will be added to EATOM!!)
 
 
 POSCAR: Mg3Sb2                                  
  positions in direct lattice
  velocities in cartesian coordinates
 exchange correlation table for  LEXCH =        8
   RHO(1)=    0.500       N(1)  =     2000
   RHO(2)=  100.500       N(2)  =     4000
 


--------------------------------------------------------------------------------------------------------


 ion  position               nearest neighbor table
   1  0.000  0.000  0.000-   5 3.12   5 3.12   5 3.12   4 3.12   4 3.12   4 3.12
   2  0.333  0.667  0.632-   5 2.85   5 2.85   5 2.85   4 2.96   3 3.28   3 3.28   3 3.28
   3  0.667  0.333  0.368-   4 2.85   4 2.85   4 2.85   5 2.96   2 3.28   2 3.28   2 3.28
   4  0.333  0.667  0.225-   3 2.85   3 2.85   3 2.85   2 2.96   1 3.12   1 3.12   1 3.12
   5  0.667  0.333  0.775-   2 2.85   2 2.85   2 2.85   3 2.96   1 3.12   1 3.12   1 3.12
 
  LATTYP: Found a hexagonal cell.
 ALAT       =     4.5978499023
 C/A-ratio  =     1.5813126784
  
  Lattice vectors:
  
 A1 = (   4.5978499024,   0.0000000000,   0.0000000000)
 A2 = (  -2.2989249512,   3.9818548182,   0.0000000000)
 A3 = (   0.0000000000,   0.0000000000,   7.2706383437)


Analysis of symmetry for initial positions (statically):
=====================================================================
 Subroutine PRICEL returns:
 Original cell was already a primitive cell.
 

 Routine SETGRP: Setting up the symmetry group for a 
 hexagonal supercell.


 Subroutine GETGRP returns: Found 12 space group operations
 (whereof 12 operations were pure point group operations)
 out of a pool of 24 trial point group operations.


The static configuration has the point symmetry D_3d.


Analysis of symmetry for dynamics (positions and initial velocities):
=====================================================================
 Subroutine PRICEL returns:
 Original cell was already a primitive cell.
 

 Routine SETGRP: Setting up the symmetry group for a 
 hexagonal supercell.


 Subroutine GETGRP returns: Found 12 space group operations
 (whereof 12 operations were pure point group operations)
 out of a pool of 24 trial point group operations.


The dynamic configuration has the point symmetry D_3d.


 Subroutine INISYM returns: Found 12 space group operations
 (whereof 12 operations are pure point group operations),
 and found     1 'primitive' translations

 
 
 KPOINTS: K-Path Generated by VASPKIT.            
  interpolating k-points between supplied coordinates
  k-points in reciprocal lattice
Space group operators:
 irot       det(A)        alpha          n_x          n_y          n_z        tau_x        tau_y        tau_z
    1     1.000000     0.000001     1.000000     0.000000     0.000000     0.000000     0.000000     0.000000
    2    -1.000000     0.000001     1.000000     0.000000     0.000000     0.000000     0.000000     0.000000
    3     1.000000   120.000000     0.000000     0.000000    -1.000000     0.000000     0.000000     0.000000
    4    -1.000000   120.000000     0.000000     0.000000    -1.000000     0.000000     0.000000     0.000000
    5     1.000000   120.000000     0.000000     0.000000     1.000000     0.000000     0.000000     0.000000
    6    -1.000000   120.000000     0.000000     0.000000     1.000000     0.000000     0.000000     0.000000
    7     1.000000   180.000000     1.000000     0.000000     0.000000     0.000000     0.000000     0.000000
    8    -1.000000   180.000000     1.000000     0.000000     0.000000     0.000000     0.000000     0.000000
    9     1.000000   180.000000     0.500000    -0.866025     0.000000     0.000000     0.000000     0.000000
   10    -1.000000   180.000000     0.500000    -0.866025     0.000000     0.000000     0.000000     0.000000
   11     1.000000   180.000000    -0.500000    -0.866025     0.000000     0.000000     0.000000     0.000000
   12    -1.000000   180.000000    -0.500000    -0.866025     0.000000     0.000000     0.000000     0.000000


--------------------------------------------------------------------------------------------------------




 Dimension of arrays:
   k-points           NKPTS =    210   k-points in BZ     NKDIM =    210   number of bands    NBANDS=    240
   number of dos      NEDOS =    301   number of ions     NIONS =      5
   non local maximal  LDIM  =      5   non local SUM 2l+1 LMDIM =     13
   total plane-waves  NPLWV =  20736
   max r-space proj   IRMAX =      1   max aug-charges    IRDMAX=   8844
   dimension x,y,z NGX =    24 NGY =   24 NGZ =   36
   dimension x,y,z NGXF=    48 NGYF=   48 NGZF=   72
   support grid    NGXF=    48 NGYF=   48 NGZF=   72
   ions per type =               3   2
   NGX,Y,Z   is equivalent  to a cutoff of   8.68,  8.68,  8.23 a.u.
   NGXF,Y,Z  is equivalent  to a cutoff of  17.36, 17.36, 16.46 a.u.

 SYSTEM =                                          
 POSCAR =  Mg3Sb2                                  

 Startparameter for this run:
   NWRITE =      2    write-flag & timer
   PREC   = normal    normal or accurate (medium, high low for compatibility)
   ISTART =      0    job   : 0-new  1-cont  2-samecut
   ICHARG =     11    charge: 1-file 2-atom 10-const
   ISPIN  =      1    spin polarized calculation?
   LNONCOLLINEAR =      F non collinear calculations
   LSORBIT =      F    spin-orbit coupling
   INIWAV =      1    electr: 0-lowe 1-rand  2-diag
   LASPH  =      F    aspherical Exc in radial PAW
   METAGGA=      F    non-selfconsistent MetaGGA calc.

 Electronic Relaxation 1
   ENCUT  =  400.0 eV  29.40 Ry    5.42 a.u.   7.50  7.50 11.86*2*pi/ulx,y,z
   ENINI  =  400.0     initial cutoff
   ENAUG  =  454.7 eV  augmentation charge cutoff
   NELM   =    300;   NELMIN=  2; NELMDL= -5     # of ELM steps 
   EDIFF  = 0.1E-05   stopping-criterion for ELM
   LREAL  =      F    real-space projection
   NLSPLINE    = F    spline interpolate recip. space projectors
   LCOMPAT=      F    compatible to vasp.4.4
   GGA_COMPAT  = T    GGA compatible to vasp.4.4-vasp.4.6
   LMAXPAW     = -100 max onsite density
   LMAXMIX     =    2 max onsite mixed and CHGCAR
   VOSKOWN=      0    Vosko Wilk Nusair interpolation
   ROPT   =    0.00000   0.00000
 Ionic relaxation
   EDIFFG = 0.1E-04   stopping-criterion for IOM
   NSW    =      0    number of steps for IOM
   NBLOCK =      1;   KBLOCK =      1    inner block; outer block 
   IBRION =     -1    ionic relax: 0-MD 1-quasi-New 2-CG
   NFREE  =      0    steps in history (QN), initial steepest desc. (CG)
   ISIF   =      2    stress and relaxation
   IWAVPR =     10    prediction:  0-non 1-charg 2-wave 3-comb
   ISYM   =      2    0-nonsym 1-usesym 2-fastsym
   LCORR  =      T    Harris-Foulkes like correction to forces

   POTIM  = 0.5000    time-step for ionic-motion
   TEIN   =    0.0    initial temperature
   TEBEG  =    0.0;   TEEND  =   0.0 temperature during run
   SMASS  =  -3.00    Nose mass-parameter (am)
   estimated Nose-frequenzy (Omega)   =  0.10E-29 period in steps =****** mass=  -0.483E-27a.u.
   SCALEE = 1.0000    scale energy and forces
   NPACO  =    256;   APACO  = 16.0  distance and # of slots for P.C.
   PSTRESS=    0.0 pullay stress

  Mass of Ions in am
   POMASS =  24.30121.75
  Ionic Valenz
   ZVAL   =   2.00  5.00
  Atomic Wigner-Seitz radii
   RWIGS  =  -1.00 -1.00
  virtual crystal weights 
   VCA    =   1.00  1.00
   NELECT =      16.0000    total number of electrons
   NUPDOWN=      -1.0000    fix difference up-down

 DOS related values:
   EMIN   =  10.00;   EMAX   =-10.00  energy-range for DOS
   EFERMI =   0.00
   ISMEAR =     0;   SIGMA  =   0.05  broadening in eV -4-tet -1-fermi 0-gaus

 Electronic relaxation 2 (details)
   IALGO  =     38    algorithm
   LDIAG  =      T    sub-space diagonalisation (order eigenvalues)
   LSUBROT=      F    optimize rotation matrix (better conditioning)
   TURBO    =      0    0=normal 1=particle mesh
   IRESTART =      0    0=no restart 2=restart with 2 vectors
   NREBOOT  =      0    no. of reboots
   NMIN     =      0    reboot dimension
   EREF     =   0.00    reference energy to select bands
   IMIX   =      4    mixing-type and parameters
     AMIX     =   0.40;   BMIX     =  1.00
     AMIX_MAG =   1.60;   BMIX_MAG =  1.00
     AMIN     =   0.10
     WC   =   100.;   INIMIX=   1;  MIXPRE=   1;  MAXMIX= -45

 Intra band minimization:
   WEIMIN = 0.0000     energy-eigenvalue tresh-hold
   EBREAK =  0.10E-08  absolut break condition
   DEPER  =   0.30     relativ break condition  

   TIME   =   0.40     timestep for ELM

  volume/ion in A,a.u.               =      26.62       179.65
  Fermi-wavevector in a.u.,A,eV,Ry     =   0.807937  1.526779  8.881358  0.652761
  Thomas-Fermi vector in A             =   1.916649
 
 Write flags
   LWAVE        =      F    write WAVECAR
   LDOWNSAMPLE  =      F    k-point downsampling of WAVECAR
   LCHARG       =      F    write CHGCAR
   LVTOT        =      F    write LOCPOT, total local potential
   LVHAR        =      F    write LOCPOT, Hartree potential only
   LELF         =      F    write electronic localiz. function (ELF)
   LORBIT       =     11    0 simple, 1 ext, 2 COOP (PROOUT), +10 PAW based schemes


 Dipole corrections
   LMONO  =      F    monopole corrections only (constant potential shift)
   LDIPOL =      F    correct potential (dipole corrections)
   IDIPOL =      0    1-x, 2-y, 3-z, 4-all directions 
   EPSILON=  1.0000000 bulk dielectric constant

 Exchange correlation treatment:
   GGA     =    --    GGA type
   LEXCH   =     8    internal setting for exchange type
   VOSKOWN=      0    Vosko Wilk Nusair interpolation
   LHFCALC =     F    Hartree Fock is set to
   LHFONE  =     F    Hartree Fock one center treatment
   AEXX    =    0.0000 exact exchange contribution

 Linear response parameters
   LEPSILON=     F    determine dielectric tensor
   LRPA    =     F    only Hartree local field effects (RPA)
   LNABLA  =     F    use nabla operator in PAW spheres
   LVEL    =     F    velocity operator in full k-point grid
   LINTERFAST=   F  fast interpolation
   KINTER  =     0    interpolate to denser k-point grid
   CSHIFT  =0.1000    complex shift for real part using Kramers Kronig
   OMEGAMAX=  -1.0    maximum frequency
   DEG_THRESHOLD= 0.2000000E-02 threshold for treating states as degnerate
   RTIME   =   -0.100 relaxation time in fs
  (WPLASMAI=    0.000 imaginary part of plasma frequency in eV, 0.658/RTIME)
   DFIELD  = 0.0000000 0.0000000 0.0000000 field for delta impulse in time
 
 Orbital magnetization related:
   ORBITALMAG=     F  switch on orbital magnetization
   LCHIMAG   =     F  perturbation theory with respect to B field
   DQ        =  0.001000  dq finite difference perturbation B field
   LLRAUG    =     F  two centre corrections for induced B field



--------------------------------------------------------------------------------------------------------


 Static calculation
 charge density and potential remain constant during run
 non-spin polarized calculation
 Variant of blocked Davidson
 Davidson routine will perform the subspace rotation
 perform sub-space diagonalisation
    after iterative eigenvector-optimisation
 no mixing
 using additional bands          232
 reciprocal scheme for non local part
 use partial core corrections
 calculate Harris-corrections to forces 
   (improved forces if not selfconsistent)
 use gradient corrections 
 WARNING: stress and forces are not correct
  (second derivative of E(xc) not defined)
 use of overlap-Matrix (Vanderbilt PP)
 Gauss-broadening in eV      SIGMA  =   0.05


--------------------------------------------------------------------------------------------------------


  energy-cutoff  :      400.00
  volume of cell :      133.11
      direct lattice vectors                 reciprocal lattice vectors
     4.597849902  0.000000000  0.000000000     0.217492963  0.125569621  0.000000000
    -2.298924951  3.981854818  0.000000000     0.000000000  0.251139242  0.000000000
     0.000000000  0.000000000  7.270638344     0.000000000  0.000000000  0.137539505

  length of vectors
     4.597849902  4.597849902  7.270638344     0.251139242  0.251139242  0.137539505


 
 k-points in units of 2pi/SCALE and weight: K-Path Generated by VASPKIT.            
   0.00000000  0.00000000  0.00000000       0.005
   0.00374988  0.00216499  0.00000000       0.005
   0.00749976  0.00432999  0.00000000       0.005
   0.01124964  0.00649498  0.00000000       0.005
   0.01499951  0.00865997  0.00000000       0.005
   0.01874939  0.01082497  0.00000000       0.005
   0.02249927  0.01298996  0.00000000       0.005
   0.02624915  0.01515495  0.00000000       0.005
   0.02999903  0.01731995  0.00000000       0.005
   0.03374891  0.01948494  0.00000000       0.005
   0.03749879  0.02164993  0.00000000       0.005
   0.04124867  0.02381493  0.00000000       0.005
   0.04499854  0.02597992  0.00000000       0.005
   0.04874842  0.02814492  0.00000000       0.005
   0.05249830  0.03030991  0.00000000       0.005
   0.05624818  0.03247490  0.00000000       0.005
   0.05999806  0.03463990  0.00000000       0.005
   0.06374794  0.03680489  0.00000000       0.005
   0.06749782  0.03896988  0.00000000       0.005
   0.07124769  0.04113488  0.00000000       0.005
   0.07499757  0.04329987  0.00000000       0.005
   0.07874745  0.04546486  0.00000000       0.005
   0.08249733  0.04762986  0.00000000       0.005
   0.08624721  0.04979485  0.00000000       0.005
   0.08999709  0.05195984  0.00000000       0.005
   0.09374697  0.05412484  0.00000000       0.005
   0.09749685  0.05628983  0.00000000       0.005
   0.10124672  0.05845482  0.00000000       0.005
   0.10499660  0.06061982  0.00000000       0.005
   0.10874648  0.06278481  0.00000000       0.005
   0.10874648  0.06278481  0.00000000       0.005
   0.10749652  0.06494980  0.00000000       0.005
   0.10624656  0.06711480  0.00000000       0.005
   0.10499660  0.06927979  0.00000000       0.005
   0.10374664  0.07144478  0.00000000       0.005
   0.10249668  0.07360978  0.00000000       0.005
   0.10124672  0.07577477  0.00000000       0.005
   0.09999676  0.07793976  0.00000000       0.005
   0.09874681  0.08010476  0.00000000       0.005
   0.09749685  0.08226975  0.00000000       0.005
   0.09624689  0.08443475  0.00000000       0.005
   0.09499693  0.08659974  0.00000000       0.005
   0.09374697  0.08876473  0.00000000       0.005
   0.09249701  0.09092973  0.00000000       0.005
   0.09124705  0.09309472  0.00000000       0.005
   0.08999709  0.09525971  0.00000000       0.005
   0.08874713  0.09742471  0.00000000       0.005
   0.08749717  0.09958970  0.00000000       0.005
   0.08624721  0.10175469  0.00000000       0.005
   0.08499725  0.10391969  0.00000000       0.005
   0.08374729  0.10608468  0.00000000       0.005
   0.08249733  0.10824967  0.00000000       0.005
   0.08124737  0.11041467  0.00000000       0.005
   0.07999741  0.11257966  0.00000000       0.005
   0.07874745  0.11474465  0.00000000       0.005
   0.07749749  0.11690965  0.00000000       0.005
   0.07624753  0.11907464  0.00000000       0.005
   0.07499757  0.12123963  0.00000000       0.005
   0.07374761  0.12340463  0.00000000       0.005
   0.07249765  0.12556962  0.00000000       0.005
   0.07249765  0.12556962  0.00000000       0.005
   0.06999774  0.12123963  0.00000000       0.005
   0.06749782  0.11690965  0.00000000       0.005
   0.06499790  0.11257966  0.00000000       0.005
   0.06249798  0.10824967  0.00000000       0.005
   0.05999806  0.10391969  0.00000000       0.005
   0.05749814  0.09958970  0.00000000       0.005
   0.05499822  0.09525971  0.00000000       0.005
   0.05249830  0.09092973  0.00000000       0.005
   0.04999838  0.08659974  0.00000000       0.005
   0.04749846  0.08226975  0.00000000       0.005
   0.04499854  0.07793976  0.00000000       0.005
   0.04249863  0.07360978  0.00000000       0.005
   0.03999871  0.06927979  0.00000000       0.005
   0.03749879  0.06494980  0.00000000       0.005
   0.03499887  0.06061982  0.00000000       0.005
   0.03249895  0.05628983  0.00000000       0.005
   0.02999903  0.05195984  0.00000000       0.005
   0.02749911  0.04762986  0.00000000       0.005
   0.02499919  0.04329987  0.00000000       0.005
   0.02249927  0.03896988  0.00000000       0.005
   0.01999935  0.03463990  0.00000000       0.005
   0.01749943  0.03030991  0.00000000       0.005
   0.01499951  0.02597992  0.00000000       0.005
   0.01249960  0.02164993  0.00000000       0.005
   0.00999968  0.01731995  0.00000000       0.005
   0.00749976  0.01298996  0.00000000       0.005
   0.00499984  0.00865997  0.00000000       0.005
   0.00249992  0.00432999  0.00000000       0.005
   0.00000000  0.00000000  0.00000000       0.005
   0.00000000  0.00000000  0.00000000       0.005
   0.00000000  0.00000000  0.00237137       0.005
   0.00000000  0.00000000  0.00474274       0.005
   0.00000000  0.00000000  0.00711411       0.005
   0.00000000  0.00000000  0.00948548       0.005
   0.00000000  0.00000000  0.01185685       0.005
   0.00000000  0.00000000  0.01422822       0.005
   0.00000000  0.00000000  0.01659960       0.005
   0.00000000  0.00000000  0.01897097       0.005
   0.00000000  0.00000000  0.02134234       0.005
   0.00000000  0.00000000  0.02371371       0.005
   0.00000000  0.00000000  0.02608508       0.005
   0.00000000  0.00000000  0.02845645       0.005
   0.00000000  0.00000000  0.03082782       0.005
   0.00000000  0.00000000  0.03319919       0.005
   0.00000000  0.00000000  0.03557056       0.005
   0.00000000  0.00000000  0.03794193       0.005
   0.00000000  0.00000000  0.04031330       0.005
   0.00000000  0.00000000  0.04268467       0.005
   0.00000000  0.00000000  0.04505604       0.005
   0.00000000  0.00000000  0.04742742       0.005
   0.00000000  0.00000000  0.04979879       0.005
   0.00000000  0.00000000  0.05217016       0.005
   0.00000000  0.00000000  0.05454153       0.005
   0.00000000  0.00000000  0.05691290       0.005
   0.00000000  0.00000000  0.05928427       0.005
   0.00000000  0.00000000  0.06165564       0.005
   0.00000000  0.00000000  0.06402701       0.005
   0.00000000  0.00000000  0.06639838       0.005
   0.00000000  0.00000000  0.06876975       0.005
   0.00000000  0.00000000  0.06876975       0.005
   0.00374988  0.00216499  0.06876975       0.005
   0.00749976  0.00432999  0.06876975       0.005
   0.01124964  0.00649498  0.06876975       0.005
   0.01499951  0.00865997  0.06876975       0.005
   0.01874939  0.01082497  0.06876975       0.005
   0.02249927  0.01298996  0.06876975       0.005
   0.02624915  0.01515495  0.06876975       0.005
   0.02999903  0.01731995  0.06876975       0.005
   0.03374891  0.01948494  0.06876975       0.005
   0.03749879  0.02164993  0.06876975       0.005
   0.04124867  0.02381493  0.06876975       0.005
   0.04499854  0.02597992  0.06876975       0.005
   0.04874842  0.02814492  0.06876975       0.005
   0.05249830  0.03030991  0.06876975       0.005
   0.05624818  0.03247490  0.06876975       0.005
   0.05999806  0.03463990  0.06876975       0.005
   0.06374794  0.03680489  0.06876975       0.005
   0.06749782  0.03896988  0.06876975       0.005
   0.07124769  0.04113488  0.06876975       0.005
   0.07499757  0.04329987  0.06876975       0.005
   0.07874745  0.04546486  0.06876975       0.005
   0.08249733  0.04762986  0.06876975       0.005
   0.08624721  0.04979485  0.06876975       0.005
   0.08999709  0.05195984  0.06876975       0.005
   0.09374697  0.05412484  0.06876975       0.005
   0.09749685  0.05628983  0.06876975       0.005
   0.10124672  0.05845482  0.06876975       0.005
   0.10499660  0.06061982  0.06876975       0.005
   0.10874648  0.06278481  0.06876975       0.005
   0.10874648  0.06278481  0.06876975       0.005
   0.10749652  0.06494980  0.06876975       0.005
   0.10624656  0.06711480  0.06876975       0.005
   0.10499660  0.06927979  0.06876975       0.005
   0.10374664  0.07144478  0.06876975       0.005
   0.10249668  0.07360978  0.06876975       0.005
   0.10124672  0.07577477  0.06876975       0.005
   0.09999676  0.07793976  0.06876975       0.005
   0.09874681  0.08010476  0.06876975       0.005
   0.09749685  0.08226975  0.06876975       0.005
   0.09624689  0.08443475  0.06876975       0.005
   0.09499693  0.08659974  0.06876975       0.005
   0.09374697  0.08876473  0.06876975       0.005
   0.09249701  0.09092973  0.06876975       0.005
   0.09124705  0.09309472  0.06876975       0.005
   0.08999709  0.09525971  0.06876975       0.005
   0.08874713  0.09742471  0.06876975       0.005
   0.08749717  0.09958970  0.06876975       0.005
   0.08624721  0.10175469  0.06876975       0.005
   0.08499725  0.10391969  0.06876975       0.005
   0.08374729  0.10608468  0.06876975       0.005
   0.08249733  0.10824967  0.06876975       0.005
   0.08124737  0.11041467  0.06876975       0.005
   0.07999741  0.11257966  0.06876975       0.005
   0.07874745  0.11474465  0.06876975       0.005
   0.07749749  0.11690965  0.06876975       0.005
   0.07624753  0.11907464  0.06876975       0.005
   0.07499757  0.12123963  0.06876975       0.005
   0.07374761  0.12340463  0.06876975       0.005
   0.07249765  0.12556962  0.06876975       0.005
   0.07249765  0.12556962  0.06876975       0.005
   0.06999774  0.12123963  0.06876975       0.005
   0.06749782  0.11690965  0.06876975       0.005
   0.06499790  0.11257966  0.06876975       0.005
   0.06249798  0.10824967  0.06876975       0.005
   0.05999806  0.10391969  0.06876975       0.005
   0.05749814  0.09958970  0.06876975       0.005
   0.05499822  0.09525971  0.06876975       0.005
   0.05249830  0.09092973  0.06876975       0.005
   0.04999838  0.08659974  0.06876975       0.005
   0.04749846  0.08226975  0.06876975       0.005
   0.04499854  0.07793976  0.06876975       0.005
   0.04249863  0.07360978  0.06876975       0.005
   0.03999871  0.06927979  0.06876975       0.005
   0.03749879  0.06494980  0.06876975       0.005
   0.03499887  0.06061982  0.06876975       0.005
   0.03249895  0.05628983  0.06876975       0.005
   0.02999903  0.05195984  0.06876975       0.005
   0.02749911  0.04762986  0.06876975       0.005
   0.02499919  0.04329987  0.06876975       0.005
   0.02249927  0.03896988  0.06876975       0.005
   0.01999935  0.03463990  0.06876975       0.005
   0.01749943  0.03030991  0.06876975       0.005
   0.01499951  0.02597992  0.06876975       0.005
   0.01249960  0.02164993  0.06876975       0.005
   0.00999968  0.01731995  0.06876975       0.005
   0.00749976  0.01298996  0.06876975       0.005
   0.00499984  0.00865997  0.06876975       0.005
   0.00249992  0.00432999  0.06876975       0.005
   0.00000000  0.00000000  0.06876975       0.005
 
 k-points in reciprocal lattice and weights: K-Path Generated by VASPKIT.            
   0.00000000  0.00000000  0.00000000       0.005
   0.01724138  0.00000000  0.00000000       0.005
   0.03448276  0.00000000  0.00000000       0.005
   0.05172414  0.00000000  0.00000000       0.005
   0.06896552  0.00000000  0.00000000       0.005
   0.08620690  0.00000000  0.00000000       0.005
   0.10344828  0.00000000  0.00000000       0.005
   0.12068966  0.00000000  0.00000000       0.005
   0.13793103  0.00000000  0.00000000       0.005
   0.15517241  0.00000000  0.00000000       0.005
   0.17241379  0.00000000  0.00000000       0.005
   0.18965517  0.00000000  0.00000000       0.005
   0.20689655  0.00000000  0.00000000       0.005
   0.22413793  0.00000000  0.00000000       0.005
   0.24137931  0.00000000  0.00000000       0.005
   0.25862069  0.00000000  0.00000000       0.005
   0.27586207  0.00000000  0.00000000       0.005
   0.29310345  0.00000000  0.00000000       0.005
   0.31034483  0.00000000  0.00000000       0.005
   0.32758621  0.00000000  0.00000000       0.005
   0.34482759  0.00000000  0.00000000       0.005
   0.36206897  0.00000000  0.00000000       0.005
   0.37931034  0.00000000  0.00000000       0.005
   0.39655172  0.00000000  0.00000000       0.005
   0.41379310  0.00000000  0.00000000       0.005
   0.43103448  0.00000000  0.00000000       0.005
   0.44827586  0.00000000  0.00000000       0.005
   0.46551724  0.00000000  0.00000000       0.005
   0.48275862  0.00000000  0.00000000       0.005
   0.50000000  0.00000000  0.00000000       0.005
   0.50000000  0.00000000  0.00000000       0.005
   0.49425287  0.01149425  0.00000000       0.005
   0.48850575  0.02298851  0.00000000       0.005
   0.48275862  0.03448276  0.00000000       0.005
   0.47701149  0.04597701  0.00000000       0.005
   0.47126437  0.05747126  0.00000000       0.005
   0.46551724  0.06896552  0.00000000       0.005
   0.45977011  0.08045977  0.00000000       0.005
   0.45402299  0.09195402  0.00000000       0.005
   0.44827586  0.10344828  0.00000000       0.005
   0.44252874  0.11494253  0.00000000       0.005
   0.43678161  0.12643678  0.00000000       0.005
   0.43103448  0.13793103  0.00000000       0.005
   0.42528736  0.14942529  0.00000000       0.005
   0.41954023  0.16091954  0.00000000       0.005
   0.41379310  0.17241379  0.00000000       0.005
   0.40804598  0.18390805  0.00000000       0.005
   0.40229885  0.19540230  0.00000000       0.005
   0.39655172  0.20689655  0.00000000       0.005
   0.39080460  0.21839080  0.00000000       0.005
   0.38505747  0.22988506  0.00000000       0.005
   0.37931034  0.24137931  0.00000000       0.005
   0.37356322  0.25287356  0.00000000       0.005
   0.36781609  0.26436782  0.00000000       0.005
   0.36206897  0.27586207  0.00000000       0.005
   0.35632184  0.28735632  0.00000000       0.005
   0.35057471  0.29885057  0.00000000       0.005
   0.34482759  0.31034483  0.00000000       0.005
   0.33908046  0.32183908  0.00000000       0.005
   0.33333333  0.33333333  0.00000000       0.005
   0.33333333  0.33333333  0.00000000       0.005
   0.32183908  0.32183908  0.00000000       0.005
   0.31034483  0.31034483  0.00000000       0.005
   0.29885057  0.29885057  0.00000000       0.005
   0.28735632  0.28735632  0.00000000       0.005
   0.27586207  0.27586207  0.00000000       0.005
   0.26436782  0.26436782  0.00000000       0.005
   0.25287356  0.25287356  0.00000000       0.005
   0.24137931  0.24137931  0.00000000       0.005
   0.22988506  0.22988506  0.00000000       0.005
   0.21839080  0.21839080  0.00000000       0.005
   0.20689655  0.20689655  0.00000000       0.005
   0.19540230  0.19540230  0.00000000       0.005
   0.18390805  0.18390805  0.00000000       0.005
   0.17241379  0.17241379  0.00000000       0.005
   0.16091954  0.16091954  0.00000000       0.005
   0.14942529  0.14942529  0.00000000       0.005
   0.13793103  0.13793103  0.00000000       0.005
   0.12643678  0.12643678  0.00000000       0.005
   0.11494253  0.11494253  0.00000000       0.005
   0.10344828  0.10344828  0.00000000       0.005
   0.09195402  0.09195402  0.00000000       0.005
   0.08045977  0.08045977  0.00000000       0.005
   0.06896552  0.06896552  0.00000000       0.005
   0.05747126  0.05747126  0.00000000       0.005
   0.04597701  0.04597701  0.00000000       0.005
   0.03448276  0.03448276  0.00000000       0.005
   0.02298851  0.02298851  0.00000000       0.005
   0.01149425  0.01149425  0.00000000       0.005
   0.00000000  0.00000000  0.00000000       0.005
   0.00000000  0.00000000  0.00000000       0.005
   0.00000000  0.00000000  0.01724138       0.005
   0.00000000  0.00000000  0.03448276       0.005
   0.00000000  0.00000000  0.05172414       0.005
   0.00000000  0.00000000  0.06896552       0.005
   0.00000000  0.00000000  0.08620690       0.005
   0.00000000  0.00000000  0.10344828       0.005
   0.00000000  0.00000000  0.12068966       0.005
   0.00000000  0.00000000  0.13793103       0.005
   0.00000000  0.00000000  0.15517241       0.005
   0.00000000  0.00000000  0.17241379       0.005
   0.00000000  0.00000000  0.18965517       0.005
   0.00000000  0.00000000  0.20689655       0.005
   0.00000000  0.00000000  0.22413793       0.005
   0.00000000  0.00000000  0.24137931       0.005
   0.00000000  0.00000000  0.25862069       0.005
   0.00000000  0.00000000  0.27586207       0.005
   0.00000000  0.00000000  0.29310345       0.005
   0.00000000  0.00000000  0.31034483       0.005
   0.00000000  0.00000000  0.32758621       0.005
   0.00000000  0.00000000  0.34482759       0.005
   0.00000000  0.00000000  0.36206897       0.005
   0.00000000  0.00000000  0.37931034       0.005
   0.00000000  0.00000000  0.39655172       0.005
   0.00000000  0.00000000  0.41379310       0.005
   0.00000000  0.00000000  0.43103448       0.005
   0.00000000  0.00000000  0.44827586       0.005
   0.00000000  0.00000000  0.46551724       0.005
   0.00000000  0.00000000  0.48275862       0.005
   0.00000000  0.00000000  0.50000000       0.005
   0.00000000  0.00000000  0.50000000       0.005
   0.01724138  0.00000000  0.50000000       0.005
   0.03448276  0.00000000  0.50000000       0.005
   0.05172414  0.00000000  0.50000000       0.005
   0.06896552  0.00000000  0.50000000       0.005
   0.08620690  0.00000000  0.50000000       0.005
   0.10344828  0.00000000  0.50000000       0.005
   0.12068966  0.00000000  0.50000000       0.005
   0.13793103  0.00000000  0.50000000       0.005
   0.15517241  0.00000000  0.50000000       0.005
   0.17241379  0.00000000  0.50000000       0.005
   0.18965517  0.00000000  0.50000000       0.005
   0.20689655  0.00000000  0.50000000       0.005
   0.22413793  0.00000000  0.50000000       0.005
   0.24137931  0.00000000  0.50000000       0.005
   0.25862069  0.00000000  0.50000000       0.005
   0.27586207  0.00000000  0.50000000       0.005
   0.29310345  0.00000000  0.50000000       0.005
   0.31034483  0.00000000  0.50000000       0.005
   0.32758621  0.00000000  0.50000000       0.005
   0.34482759  0.00000000  0.50000000       0.005
   0.36206897  0.00000000  0.50000000       0.005
   0.37931034  0.00000000  0.50000000       0.005
   0.39655172  0.00000000  0.50000000       0.005
   0.41379310  0.00000000  0.50000000       0.005
   0.43103448  0.00000000  0.50000000       0.005
   0.44827586  0.00000000  0.50000000       0.005
   0.46551724  0.00000000  0.50000000       0.005
   0.48275862  0.00000000  0.50000000       0.005
   0.50000000  0.00000000  0.50000000       0.005
   0.50000000  0.00000000  0.50000000       0.005
   0.49425287  0.01149425  0.50000000       0.005
   0.48850575  0.02298851  0.50000000       0.005
   0.48275862  0.03448276  0.50000000       0.005
   0.47701149  0.04597701  0.50000000       0.005
   0.47126437  0.05747126  0.50000000       0.005
   0.46551724  0.06896552  0.50000000       0.005
   0.45977011  0.08045977  0.50000000       0.005
   0.45402299  0.09195402  0.50000000       0.005
   0.44827586  0.10344828  0.50000000       0.005
   0.44252874  0.11494253  0.50000000       0.005
   0.43678161  0.12643678  0.50000000       0.005
   0.43103448  0.13793103  0.50000000       0.005
   0.42528736  0.14942529  0.50000000       0.005
   0.41954023  0.16091954  0.50000000       0.005
   0.41379310  0.17241379  0.50000000       0.005
   0.40804598  0.18390805  0.50000000       0.005
   0.40229885  0.19540230  0.50000000       0.005
   0.39655172  0.20689655  0.50000000       0.005
   0.39080460  0.21839080  0.50000000       0.005
   0.38505747  0.22988506  0.50000000       0.005
   0.37931034  0.24137931  0.50000000       0.005
   0.37356322  0.25287356  0.50000000       0.005
   0.36781609  0.26436782  0.50000000       0.005
   0.36206897  0.27586207  0.50000000       0.005
   0.35632184  0.28735632  0.50000000       0.005
   0.35057471  0.29885057  0.50000000       0.005
   0.34482759  0.31034483  0.50000000       0.005
   0.33908046  0.32183908  0.50000000       0.005
   0.33333333  0.33333333  0.50000000       0.005
   0.33333333  0.33333333  0.50000000       0.005
   0.32183908  0.32183908  0.50000000       0.005
   0.31034483  0.31034483  0.50000000       0.005
   0.29885057  0.29885057  0.50000000       0.005
   0.28735632  0.28735632  0.50000000       0.005
   0.27586207  0.27586207  0.50000000       0.005
   0.26436782  0.26436782  0.50000000       0.005
   0.25287356  0.25287356  0.50000000       0.005
   0.24137931  0.24137931  0.50000000       0.005
   0.22988506  0.22988506  0.50000000       0.005
   0.21839080  0.21839080  0.50000000       0.005
   0.20689655  0.20689655  0.50000000       0.005
   0.19540230  0.19540230  0.50000000       0.005
   0.18390805  0.18390805  0.50000000       0.005
   0.17241379  0.17241379  0.50000000       0.005
   0.16091954  0.16091954  0.50000000       0.005
   0.14942529  0.14942529  0.50000000       0.005
   0.13793103  0.13793103  0.50000000       0.005
   0.12643678  0.12643678  0.50000000       0.005
   0.11494253  0.11494253  0.50000000       0.005
   0.10344828  0.10344828  0.50000000       0.005
   0.09195402  0.09195402  0.50000000       0.005
   0.08045977  0.08045977  0.50000000       0.005
   0.06896552  0.06896552  0.50000000       0.005
   0.05747126  0.05747126  0.50000000       0.005
   0.04597701  0.04597701  0.50000000       0.005
   0.03448276  0.03448276  0.50000000       0.005
   0.02298851  0.02298851  0.50000000       0.005
   0.01149425  0.01149425  0.50000000       0.005
   0.00000000  0.00000000  0.50000000       0.005
 
 position of ions in fractional coordinates (direct lattice) 
   0.00000000  0.00000000  0.00000000
   0.33333334  0.66666669  0.63203644
   0.66666663  0.33333331  0.36796356
   0.33333334  0.66666669  0.22537666
   0.66666663  0.33333331  0.77462337
 
 position of ions in cartesian coordinates  (Angst):
   0.00000000  0.00000000  0.00000000
  -0.00000000  2.65456996  4.59530835
   2.29892482  1.32728486  2.67533000
  -0.00000000  2.65456996  1.63863216
   2.29892482  1.32728486  5.63200640
 


--------------------------------------------------------------------------------------------------------


 k-point  1 :   0.0000 0.0000 0.0000  plane waves:    2429
 k-point  2 :   0.0172 0.0000 0.0000  plane waves:    2429
 k-point  3 :   0.0345 0.0000 0.0000  plane waves:    2417
 k-point  4 :   0.0517 0.0000 0.0000  plane waves:    2401
 k-point  5 :   0.0690 0.0000 0.0000  plane waves:    2407
 k-point  6 :   0.0862 0.0000 0.0000  plane waves:    2407
 k-point  7 :   0.1034 0.0000 0.0000  plane waves:    2407
 k-point  8 :   0.1207 0.0000 0.0000  plane waves:    2413
 k-point  9 :   0.1379 0.0000 0.0000  plane waves:    2417
 k-point 10 :   0.1552 0.0000 0.0000  plane waves:    2421
 k-point 11 :   0.1724 0.0000 0.0000  plane waves:    2429
 k-point 12 :   0.1897 0.0000 0.0000  plane waves:    2435
 k-point 13 :   0.2069 0.0000 0.0000  plane waves:    2435
 k-point 14 :   0.2241 0.0000 0.0000  plane waves:    2425
 k-point 15 :   0.2414 0.0000 0.0000  plane waves:    2429
 k-point 16 :   0.2586 0.0000 0.0000  plane waves:    2427
 k-point 17 :   0.2759 0.0000 0.0000  plane waves:    2431
 k-point 18 :   0.2931 0.0000 0.0000  plane waves:    2429
 k-point 19 :   0.3103 0.0000 0.0000  plane waves:    2429
 k-point 20 :   0.3276 0.0000 0.0000  plane waves:    2421
 k-point 21 :   0.3448 0.0000 0.0000  plane waves:    2423
 k-point 22 :   0.3621 0.0000 0.0000  plane waves:    2419
 k-point 23 :   0.3793 0.0000 0.0000  plane waves:    2427
 k-point 24 :   0.3966 0.0000 0.0000  plane waves:    2423
 k-point 25 :   0.4138 0.0000 0.0000  plane waves:    2415
 k-point 26 :   0.4310 0.0000 0.0000  plane waves:    2405
 k-point 27 :   0.4483 0.0000 0.0000  plane waves:    2413
 k-point 28 :   0.4655 0.0000 0.0000  plane waves:    2403
 k-point 29 :   0.4828 0.0000 0.0000  plane waves:    2405
 k-point 30 :   0.5000 0.0000 0.0000  plane waves:    2396
 k-point 31 :   0.5000 0.0000 0.0000  plane waves:    2396
 k-point 32 :   0.4943 0.0115 0.0000  plane waves:    2400
 k-point 33 :   0.4885 0.0230 0.0000  plane waves:    2402
 k-point 34 :   0.4828 0.0345 0.0000  plane waves:    2390
 k-point 35 :   0.4770 0.0460 0.0000  plane waves:    2398
 k-point 36 :   0.4713 0.0575 0.0000  plane waves:    2394
 k-point 37 :   0.4655 0.0690 0.0000  plane waves:    2400
 k-point 38 :   0.4598 0.0805 0.0000  plane waves:    2400
 k-point 39 :   0.4540 0.0920 0.0000  plane waves:    2404
 k-point 40 :   0.4483 0.1034 0.0000  plane waves:    2408
 k-point 41 :   0.4425 0.1149 0.0000  plane waves:    2404
 k-point 42 :   0.4368 0.1264 0.0000  plane waves:    2410
 k-point 43 :   0.4310 0.1379 0.0000  plane waves:    2410
 k-point 44 :   0.4253 0.1494 0.0000  plane waves:    2410
 k-point 45 :   0.4195 0.1609 0.0000  plane waves:    2410
 k-point 46 :   0.4138 0.1724 0.0000  plane waves:    2406
 k-point 47 :   0.4080 0.1839 0.0000  plane waves:    2406
 k-point 48 :   0.4023 0.1954 0.0000  plane waves:    2402
 k-point 49 :   0.3966 0.2069 0.0000  plane waves:    2410
 k-point 50 :   0.3908 0.2184 0.0000  plane waves:    2420
 k-point 51 :   0.3851 0.2299 0.0000  plane waves:    2428
 k-point 52 :   0.3793 0.2414 0.0000  plane waves:    2424
 k-point 53 :   0.3736 0.2529 0.0000  plane waves:    2424
 k-point 54 :   0.3678 0.2644 0.0000  plane waves:    2430
 k-point 55 :   0.3621 0.2759 0.0000  plane waves:    2430
 k-point 56 :   0.3563 0.2874 0.0000  plane waves:    2426
 k-point 57 :   0.3506 0.2989 0.0000  plane waves:    2426
 k-point 58 :   0.3448 0.3103 0.0000  plane waves:    2422
 k-point 59 :   0.3391 0.3218 0.0000  plane waves:    2420
 k-point 60 :   0.3333 0.3333 0.0000  plane waves:    2424
 k-point 61 :   0.3333 0.3333 0.0000  plane waves:    2424
 k-point 62 :   0.3218 0.3218 0.0000  plane waves:    2418
 k-point 63 :   0.3103 0.3103 0.0000  plane waves:    2422
 k-point 64 :   0.2989 0.2989 0.0000  plane waves:    2420
 k-point 65 :   0.2874 0.2874 0.0000  plane waves:    2414
 k-point 66 :   0.2759 0.2759 0.0000  plane waves:    2402
 k-point 67 :   0.2644 0.2644 0.0000  plane waves:    2400
 k-point 68 :   0.2529 0.2529 0.0000  plane waves:    2408
 k-point 69 :   0.2414 0.2414 0.0000  plane waves:    2411
 k-point 70 :   0.2299 0.2299 0.0000  plane waves:    2417
 k-point 71 :   0.2184 0.2184 0.0000  plane waves:    2421
 k-point 72 :   0.2069 0.2069 0.0000  plane waves:    2405
 k-point 73 :   0.1954 0.1954 0.0000  plane waves:    2403
 k-point 74 :   0.1839 0.1839 0.0000  plane waves:    2415
 k-point 75 :   0.1724 0.1724 0.0000  plane waves:    2415
 k-point 76 :   0.1609 0.1609 0.0000  plane waves:    2415
 k-point 77 :   0.1494 0.1494 0.0000  plane waves:    2427
 k-point 78 :   0.1379 0.1379 0.0000  plane waves:    2425
 k-point 79 :   0.1264 0.1264 0.0000  plane waves:    2429
 k-point 80 :   0.1149 0.1149 0.0000  plane waves:    2429
 k-point 81 :   0.1034 0.1034 0.0000  plane waves:    2425
 k-point 82 :   0.0920 0.0920 0.0000  plane waves:    2417
 k-point 83 :   0.0805 0.0805 0.0000  plane waves:    2417
 k-point 84 :   0.0690 0.0690 0.0000  plane waves:    2409
 k-point 85 :   0.0575 0.0575 0.0000  plane waves:    2405
 k-point 86 :   0.0460 0.0460 0.0000  plane waves:    2403
 k-point 87 :   0.0345 0.0345 0.0000  plane waves:    2401
 k-point 88 :   0.0230 0.0230 0.0000  plane waves:    2415
 k-point 89 :   0.0115 0.0115 0.0000  plane waves:    2429
 k-point 90 :   0.0000 0.0000 0.0000  plane waves:    2429
 k-point 91 :   0.0000 0.0000 0.0000  plane waves:    2429
 k-point 92 :   0.0000 0.0000 0.0172  plane waves:    2429
 k-point 93 :   0.0000 0.0000 0.0345  plane waves:    2423
 k-point 94 :   0.0000 0.0000 0.0517  plane waves:    2423
 k-point 95 :   0.0000 0.0000 0.0690  plane waves:    2423
 k-point 96 :   0.0000 0.0000 0.0862  plane waves:    2423
 k-point 97 :   0.0000 0.0000 0.1034  plane waves:    2411
 k-point 98 :   0.0000 0.0000 0.1207  plane waves:    2405
 k-point 99 :   0.0000 0.0000 0.1379  plane waves:    2417
 k-point ** :   0.0000 0.0000 0.1552  plane waves:    2418
 k-point ** :   0.0000 0.0000 0.1724  plane waves:    2430
 k-point ** :   0.0000 0.0000 0.1897  plane waves:    2430
 k-point ** :   0.0000 0.0000 0.2069  plane waves:    2430
 k-point ** :   0.0000 0.0000 0.2241  plane waves:    2442
 k-point ** :   0.0000 0.0000 0.2414  plane waves:    2442
 k-point ** :   0.0000 0.0000 0.2586  plane waves:    2430
 k-point ** :   0.0000 0.0000 0.2759  plane waves:    2430
 k-point ** :   0.0000 0.0000 0.2931  plane waves:    2430
 k-point ** :   0.0000 0.0000 0.3103  plane waves:    2430
 k-point ** :   0.0000 0.0000 0.3276  plane waves:    2430
 k-point ** :   0.0000 0.0000 0.3448  plane waves:    2424
 k-point ** :   0.0000 0.0000 0.3621  plane waves:    2424
 k-point ** :   0.0000 0.0000 0.3793  plane waves:    2424
 k-point ** :   0.0000 0.0000 0.3966  plane waves:    2424
 k-point ** :   0.0000 0.0000 0.4138  plane waves:    2412
 k-point ** :   0.0000 0.0000 0.4310  plane waves:    2406
 k-point ** :   0.0000 0.0000 0.4483  plane waves:    2412
 k-point ** :   0.0000 0.0000 0.4655  plane waves:    2412
 k-point ** :   0.0000 0.0000 0.4828  plane waves:    2418
 k-point ** :   0.0000 0.0000 0.5000  plane waves:    2424
 k-point ** :   0.0000 0.0000 0.5000  plane waves:    2424
 k-point ** :   0.0172 0.0000 0.5000  plane waves:    2416
 k-point ** :   0.0345 0.0000 0.5000  plane waves:    2410
 k-point ** :   0.0517 0.0000 0.5000  plane waves:    2414
 k-point ** :   0.0690 0.0000 0.5000  plane waves:    2418
 k-point ** :   0.0862 0.0000 0.5000  plane waves:    2430
 k-point ** :   0.1034 0.0000 0.5000  plane waves:    2434
 k-point ** :   0.1207 0.0000 0.5000  plane waves:    2440
 k-point ** :   0.1379 0.0000 0.5000  plane waves:    2436
 k-point ** :   0.1552 0.0000 0.5000  plane waves:    2428
 k-point ** :   0.1724 0.0000 0.5000  plane waves:    2428
 k-point ** :   0.1897 0.0000 0.5000  plane waves:    2432
 k-point ** :   0.2069 0.0000 0.5000  plane waves:    2434
 k-point ** :   0.2241 0.0000 0.5000  plane waves:    2438
 k-point ** :   0.2414 0.0000 0.5000  plane waves:    2442
 k-point ** :   0.2586 0.0000 0.5000  plane waves:    2444
 k-point ** :   0.2759 0.0000 0.5000  plane waves:    2436
 k-point ** :   0.2931 0.0000 0.5000  plane waves:    2428
 k-point ** :   0.3103 0.0000 0.5000  plane waves:    2428
 k-point ** :   0.3276 0.0000 0.5000  plane waves:    2428
 k-point ** :   0.3448 0.0000 0.5000  plane waves:    2428
 k-point ** :   0.3621 0.0000 0.5000  plane waves:    2438
 k-point ** :   0.3793 0.0000 0.5000  plane waves:    2442
 k-point ** :   0.3966 0.0000 0.5000  plane waves:    2422
 k-point ** :   0.4138 0.0000 0.5000  plane waves:    2426
 k-point ** :   0.4310 0.0000 0.5000  plane waves:    2426
 k-point ** :   0.4483 0.0000 0.5000  plane waves:    2416
 k-point ** :   0.4655 0.0000 0.5000  plane waves:    2412
 k-point ** :   0.4828 0.0000 0.5000  plane waves:    2402
 k-point ** :   0.5000 0.0000 0.5000  plane waves:    2392
 k-point ** :   0.5000 0.0000 0.5000  plane waves:    2392
 k-point ** :   0.4943 0.0115 0.5000  plane waves:    2392
 k-point ** :   0.4885 0.0230 0.5000  plane waves:    2396
 k-point ** :   0.4828 0.0345 0.5000  plane waves:    2396
 k-point ** :   0.4770 0.0460 0.5000  plane waves:    2400
 k-point ** :   0.4713 0.0575 0.5000  plane waves:    2412
 k-point ** :   0.4655 0.0690 0.5000  plane waves:    2414
 k-point ** :   0.4598 0.0805 0.5000  plane waves:    2406
 k-point ** :   0.4540 0.0920 0.5000  plane waves:    2410
 k-point ** :   0.4483 0.1034 0.5000  plane waves:    2406
 k-point ** :   0.4425 0.1149 0.5000  plane waves:    2402
 k-point ** :   0.4368 0.1264 0.5000  plane waves:    2398
 k-point ** :   0.4310 0.1379 0.5000  plane waves:    2398
 k-point ** :   0.4253 0.1494 0.5000  plane waves:    2398
 k-point ** :   0.4195 0.1609 0.5000  plane waves:    2406
 k-point ** :   0.4138 0.1724 0.5000  plane waves:    2400
 k-point ** :   0.4080 0.1839 0.5000  plane waves:    2396
 k-point ** :   0.4023 0.1954 0.5000  plane waves:    2396
 k-point ** :   0.3966 0.2069 0.5000  plane waves:    2396
 k-point ** :   0.3908 0.2184 0.5000  plane waves:    2396
 k-point ** :   0.3851 0.2299 0.5000  plane waves:    2406
 k-point ** :   0.3793 0.2414 0.5000  plane waves:    2402
 k-point ** :   0.3736 0.2529 0.5000  plane waves:    2394
 k-point ** :   0.3678 0.2644 0.5000  plane waves:    2394
 k-point ** :   0.3621 0.2759 0.5000  plane waves:    2398
 k-point ** :   0.3563 0.2874 0.5000  plane waves:    2390
 k-point ** :   0.3506 0.2989 0.5000  plane waves:    2394
 k-point ** :   0.3448 0.3103 0.5000  plane waves:    2386
 k-point ** :   0.3391 0.3218 0.5000  plane waves:    2394
 k-point ** :   0.3333 0.3333 0.5000  plane waves:    2388
 k-point ** :   0.3333 0.3333 0.5000  plane waves:    2388
 k-point ** :   0.3218 0.3218 0.5000  plane waves:    2392
 k-point ** :   0.3103 0.3103 0.5000  plane waves:    2402
 k-point ** :   0.2989 0.2989 0.5000  plane waves:    2402
 k-point ** :   0.2874 0.2874 0.5000  plane waves:    2398
 k-point ** :   0.2759 0.2759 0.5000  plane waves:    2400
 k-point ** :   0.2644 0.2644 0.5000  plane waves:    2408
 k-point ** :   0.2529 0.2529 0.5000  plane waves:    2408
 k-point ** :   0.2414 0.2414 0.5000  plane waves:    2410
 k-point ** :   0.2299 0.2299 0.5000  plane waves:    2410
 k-point ** :   0.2184 0.2184 0.5000  plane waves:    2418
 k-point ** :   0.2069 0.2069 0.5000  plane waves:    2422
 k-point ** :   0.1954 0.1954 0.5000  plane waves:    2422
 k-point ** :   0.1839 0.1839 0.5000  plane waves:    2418
 k-point ** :   0.1724 0.1724 0.5000  plane waves:    2426
 k-point ** :   0.1609 0.1609 0.5000  plane waves:    2426
 k-point ** :   0.1494 0.1494 0.5000  plane waves:    2434
 k-point ** :   0.1379 0.1379 0.5000  plane waves:    2434
 k-point ** :   0.1264 0.1264 0.5000  plane waves:    2440
 k-point ** :   0.1149 0.1149 0.5000  plane waves:    2452
 k-point ** :   0.1034 0.1034 0.5000  plane waves:    2452
 k-point ** :   0.0920 0.0920 0.5000  plane waves:    2450
 k-point ** :   0.0805 0.0805 0.5000  plane waves:    2444
 k-point ** :   0.0690 0.0690 0.5000  plane waves:    2436
 k-point ** :   0.0575 0.0575 0.5000  plane waves:    2440
 k-point ** :   0.0460 0.0460 0.5000  plane waves:    2436
 k-point ** :   0.0345 0.0345 0.5000  plane waves:    2424
 k-point ** :   0.0230 0.0230 0.5000  plane waves:    2412
 k-point ** :   0.0115 0.0115 0.5000  plane waves:    2416
 k-point ** :   0.0000 0.0000 0.5000  plane waves:    2424

 maximum and minimum number of plane-waves per node :       259      220

 maximum number of plane-waves:      2452
 maximum index in each direction: 
   IXMAX=    7   IYMAX=    7   IZMAX=   11
   IXMIN=   -7   IYMIN=   -7   IZMIN=  -12


 parallel 3D FFT for wavefunctions:
    minimum data exchange during FFTs selected (reduces bandwidth)
 parallel 3D FFT for charge:
    minimum data exchange during FFTs selected (reduces bandwidth)


 total amount of memory used by VASP MPI-rank0    69137. kBytes
=======================================================================

   base      :      30000. kBytes
   nonl-proj :      11202. kBytes
   fftplans  :        208. kBytes
   grid      :        302. kBytes
   one-center:          8. kBytes
   wavefun   :      27417. kBytes
 
     INWAV:  cpu time    0.0000: real time    0.0000
 initial charge density was supplied:
 number of electron      15.9999995 magnetization 
 keeping initial charge density in first step


--------------------------------------------------------------------------------------------------------


 Maximum index for augmentation-charges          371 (set IRDMAX)


--------------------------------------------------------------------------------------------------------


 First call to EWALD:  gamma=   0.347
 Maximum number of real-space cells 3x 3x 2
 Maximum number of reciprocal cells 3x 3x 4

    FEWALD:  cpu time    0.0020: real time    0.0046


--------------------------------------- Iteration      1(   1)  ---------------------------------------


    POTLOK:  cpu time    0.0357: real time    0.1099
    SETDIJ:  cpu time    0.0030: real time    0.0103
     EDDAV:  cpu time   15.2096: real time   15.3336
       DOS:  cpu time    0.0135: real time    0.0222
    --------------------------------------------
      LOOP:  cpu time   15.2620: real time   15.4761

 eigenvalue-minimisations  :100800
 total energy-change (2. order) : 0.4685473E+02  (-0.1492750E+03)
 number of electron      15.9999995 magnetization 
 augmentation part       15.9999995 magnetization 

 Free energy of the ion-electron system (eV)
  ---------------------------------------------------
  alpha Z        PSCENC =         5.24900307
  Ewald energy   TEWEN  =      -387.53429618
  -Hartree energ DENC   =       -29.73936199
  -exchange      EXHF   =         0.00000000
  -V(xc)+E(xc)   XCENC  =      -237.45171177
  PAW double counting   =       970.18557498     -706.90920100
  entropy T*S    EENTRO =        -0.00213878
  eigenvalues    EBANDS =        64.04514757
  atomic energy  EATOM  =       369.01171218
  Solvation  Ediel_sol  =         0.00000000
  ---------------------------------------------------
  free energy    TOTEN  =        46.85472807 eV

  energy without entropy =       46.85686685  energy(sigma->0) =       46.85579746


--------------------------------------------------------------------------------------------------------




--------------------------------------- Iteration      1(   2)  ---------------------------------------


     EDDAV:  cpu time   17.4265: real time   17.4473
       DOS:  cpu time    0.0122: real time    0.0122
    --------------------------------------------
      LOOP:  cpu time   17.4386: real time   17.4595

 eigenvalue-minimisations  :122376
 total energy-change (2. order) :-0.5675042E+02  (-0.4977305E+02)
 number of electron      15.9999995 magnetization 
 augmentation part       15.9999995 magnetization 

 Free energy of the ion-electron system (eV)
  ---------------------------------------------------
  alpha Z        PSCENC =         5.24900307
  Ewald energy   TEWEN  =      -387.53429618
  -Hartree energ DENC   =       -29.73936199
  -exchange      EXHF   =         0.00000000
  -V(xc)+E(xc)   XCENC  =      -237.45171177
  PAW double counting   =       970.18557498     -706.90920100
  entropy T*S    EENTRO =        -0.00021932
  eigenvalues    EBANDS =         7.29281146
  atomic energy  EATOM  =       369.01171218
  Solvation  Ediel_sol  =         0.00000000
  ---------------------------------------------------
  free energy    TOTEN  =        -9.89568858 eV

  energy without entropy =       -9.89546925  energy(sigma->0) =       -9.89557892


--------------------------------------------------------------------------------------------------------




--------------------------------------- Iteration      1(   3)  ---------------------------------------


     EDDAV:  cpu time   17.3831: real time   17.3943
       DOS:  cpu time    0.0096: real time    0.0107
    --------------------------------------------
      LOOP:  cpu time   17.3927: real time   17.4050

 eigenvalue-minimisations  :118848
 total energy-change (2. order) :-0.2530760E+01  (-0.2475606E+01)
 number of electron      15.9999995 magnetization 
 augmentation part       15.9999995 magnetization 

 Free energy of the ion-electron system (eV)
  ---------------------------------------------------
  alpha Z        PSCENC =         5.24900307
  Ewald energy   TEWEN  =      -387.53429618
  -Hartree energ DENC   =       -29.73936199
  -exchange      EXHF   =         0.00000000
  -V(xc)+E(xc)   XCENC  =      -237.45171177
  PAW double counting   =       970.18557498     -706.90920100
  entropy T*S    EENTRO =        -0.00000217
  eigenvalues    EBANDS =         4.76183468
  atomic energy  EATOM  =       369.01171218
  Solvation  Ediel_sol  =         0.00000000
  ---------------------------------------------------
  free energy    TOTEN  =       -12.42644820 eV

  energy without entropy =      -12.42644603  energy(sigma->0) =      -12.42644712


--------------------------------------------------------------------------------------------------------




--------------------------------------- Iteration      1(   4)  ---------------------------------------


     EDDAV:  cpu time   17.6456: real time   17.6668
       DOS:  cpu time    0.0106: real time    0.0106
    --------------------------------------------
      LOOP:  cpu time   17.6570: real time   17.6774

 eigenvalue-minimisations  :120104
 total energy-change (2. order) :-0.5992378E-02  (-0.5989995E-02)
 number of electron      15.9999995 magnetization 
 augmentation part       15.9999995 magnetization 

 Free energy of the ion-electron system (eV)
  ---------------------------------------------------
  alpha Z        PSCENC =         5.24900307
  Ewald energy   TEWEN  =      -387.53429618
  -Hartree energ DENC   =       -29.73936199
  -exchange      EXHF   =         0.00000000
  -V(xc)+E(xc)   XCENC  =      -237.45171177
  PAW double counting   =       970.18557498     -706.90920100
  entropy T*S    EENTRO =        -0.00000213
  eigenvalues    EBANDS =         4.75584227
  atomic energy  EATOM  =       369.01171218
  Solvation  Ediel_sol  =         0.00000000
  ---------------------------------------------------
  free energy    TOTEN  =       -12.43244058 eV

  energy without entropy =      -12.43243845  energy(sigma->0) =      -12.43243951


--------------------------------------------------------------------------------------------------------




--------------------------------------- Iteration      1(   5)  ---------------------------------------


     EDDAV:  cpu time   17.1582: real time   17.1816
       DOS:  cpu time    0.0105: real time    0.0105
    --------------------------------------------
      LOOP:  cpu time   17.1679: real time   17.1921

 eigenvalue-minimisations  :119776
 total energy-change (2. order) :-0.7512194E-05  (-0.7511689E-05)
 number of electron      15.9999995 magnetization 
 augmentation part       15.9999995 magnetization 

 Free energy of the ion-electron system (eV)
  ---------------------------------------------------
  alpha Z        PSCENC =         5.24900307
  Ewald energy   TEWEN  =      -387.53429618
  -Hartree energ DENC   =       -29.73936199
  -exchange      EXHF   =         0.00000000
  -V(xc)+E(xc)   XCENC  =      -237.45171177
  PAW double counting   =       970.18557498     -706.90920100
  entropy T*S    EENTRO =        -0.00000213
  eigenvalues    EBANDS =         4.75583476
  atomic energy  EATOM  =       369.01171218
  Solvation  Ediel_sol  =         0.00000000
  ---------------------------------------------------
  free energy    TOTEN  =       -12.43244809 eV

  energy without entropy =      -12.43244596  energy(sigma->0) =      -12.43244702


--------------------------------------------------------------------------------------------------------




--------------------------------------- Iteration      1(   6)  ---------------------------------------


     EDDAV:  cpu time   17.1668: real time   17.1793
       DOS:  cpu time    0.0105: real time    0.0105
    --------------------------------------------
      LOOP:  cpu time   17.1782: real time   17.1899

 eigenvalue-minimisations  :120256
 total energy-change (2. order) :-0.1342903E-07  (-0.1365846E-07)
 number of electron      15.9999995 magnetization 
 augmentation part       15.9999995 magnetization 

 Free energy of the ion-electron system (eV)
  ---------------------------------------------------
  alpha Z        PSCENC =         5.24900307
  Ewald energy   TEWEN  =      -387.53429618
  -Hartree energ DENC   =       -29.73936199
  -exchange      EXHF   =         0.00000000
  -V(xc)+E(xc)   XCENC  =      -237.45171177
  PAW double counting   =       970.18557498     -706.90920100
  entropy T*S    EENTRO =        -0.00000213
  eigenvalues    EBANDS =         4.75583474
  atomic energy  EATOM  =       369.01171218
  Solvation  Ediel_sol  =         0.00000000
  ---------------------------------------------------
  free energy    TOTEN  =       -12.43244810 eV

  energy without entropy =      -12.43244597  energy(sigma->0) =      -12.43244704


--------------------------------------------------------------------------------------------------------




 average (electrostatic) potential at core
  the test charge radii are     1.0714  1.1712
  (the norm of the test charge is              1.0000)
       1 -38.5306       2 -37.8421       3 -37.8421       4 -87.6100       5 -87.6100
 
 
 
 E-fermi :   4.4780     XC(G=0):  -8.7339     alpha+bet : -9.2324


 k-point     1 :       0.0000    0.0000    0.0000
  band No.  band energies     occupation 
      1      -5.8853      2.00000
      2      -4.6652      2.00000
      3      -0.5183      2.00000
      4       3.2636      2.00000
      5       3.2636      2.00000
      6       3.9566      2.00000
      7       3.9566      2.00000
      8       4.3505      1.99969
      9       5.3534      0.00000
     10       5.5214      0.00000
     11       7.3751      0.00000
     12       7.3751      0.00000
     13       8.1688      0.00000
     14       8.3807      0.00000
     15       8.3807      0.00000
     16       9.2923      0.00000
     17       9.3607      0.00000
     18       9.3607      0.00000
     19       9.8143      0.00000
     20       9.8143      0.00000
     21      10.0791      0.00000
     22      10.8786      0.00000
     23      11.1377      0.00000
     24      15.2320      0.00000
     25      15.2320      0.00000
     26      16.0434      0.00000
     27      16.0434      0.00000
     28      16.2945      0.00000
     29      16.3087      0.00000
     30      16.7107      0.00000
     31      16.7107      0.00000
     32      17.2071      0.00000
     33      17.2071      0.00000
     34      19.2638      0.00000
     35      19.4053      0.00000
     36      21.3303      0.00000
     37      21.6577      0.00000
     38      22.3549      0.00000
     39      22.3549      0.00000
     40      23.2330      0.00000
     41      23.5180      0.00000
     42      23.5180      0.00000
     43      23.7489      0.00000
     44      23.7489      0.00000
     45      24.1795      0.00000
     46      24.1795      0.00000
     47      24.4672      0.00000
     48      24.6240      0.00000
     49      25.2409      0.00000
     50      25.5594      0.00000
     51      25.5594      0.00000
     52      25.7381      0.00000
     53      25.7381      0.00000
     54      26.3324      0.00000
     55      26.3324      0.00000
     56      27.5877      0.00000
     57      28.3992      0.00000
     58      28.4647      0.00000
     59      28.4647      0.00000
     60      28.6285      0.00000
     61      28.6285      0.00000
     62      29.3566      0.00000
     63      29.3566      0.00000
     64      29.6702      0.00000
     65      29.6702      0.00000
     66      30.1846      0.00000
     67      30.1847      0.00000
     68      30.6306      0.00000
     69      30.7206      0.00000
     70      31.5896      0.00000
     71      31.6992      0.00000
     72      32.1649      0.00000
     73      32.1649      0.00000
     74      32.4938      0.00000
     75      32.4938      0.00000
     76      32.7378      0.00000
     77      33.2791      0.00000
     78      34.4166      0.00000
     79      34.4166      0.00000
     80      34.5696      0.00000
     81      34.5696      0.00000
     82      34.7848      0.00000
     83      34.8253      0.00000
     84      34.9658      0.00000
     85      34.9658      0.00000
     86      35.4938      0.00000
     87      35.6198      0.00000
     88      35.6487      0.00000
     89      35.6487      0.00000
     90      35.6998      0.00000
     91      36.5530      0.00000
     92      36.5530      0.00000
     93      37.1835      0.00000
     94      37.4623      0.00000
     95      37.4623      0.00000
     96      38.0708      0.00000
     97      38.0708      0.00000
     98      38.2736      0.00000
     99      38.8893      0.00000
    100      39.5987      0.00000
    101      39.5987      0.00000
    102      39.8544      0.00000
    103      40.8059      0.00000
    104      40.8059      0.00000
    105      41.1620      0.00000
    106      41.6602      0.00000
    107      41.6602      0.00000
    108      42.6374      0.00000
    109      42.7649      0.00000
    110      42.7649      0.00000
    111      43.1406      0.00000
    112      43.7149      0.00000
    113      43.7149      0.00000
    114      45.4319      0.00000
    115      45.4319      0.00000
    116      45.7308      0.00000
    117      46.2099      0.00000
    118      46.4899      0.00000
    119      46.4899      0.00000
    120      46.7386      0.00000
    121      46.7386      0.00000
    122      47.6757      0.00000
    123      47.8322      0.00000
    124      48.2125      0.00000
    125      48.2125      0.00000
    126      48.5620      0.00000
    127      48.5620      0.00000
    128      48.6465      0.00000
    129      48.8281      0.00000
    130      48.9872      0.00000
    131      49.1593      0.00000
    132      49.1595      0.00000
    133      49.6633      0.00000
    134      49.6633      0.00000
    135      49.7717      0.00000
    136      49.8804      0.00000
    137      49.9928      0.00000
    138      49.9929      0.00000
    139      50.1919      0.00000
    140      50.1920      0.00000
    141      50.6880      0.00000
    142      50.8703      0.00000
    143      50.8703      0.00000
    144      51.0939      0.00000
    145      51.0939      0.00000
    146      51.1661      0.00000
    147      52.0703      0.00000
    148      52.0703      0.00000
    149      53.2397      0.00000
    150      53.8970      0.00000
    151      54.0502      0.00000
    152      54.1739      0.00000
    153      54.4517      0.00000
    154      54.4517      0.00000
    155      54.7771      0.00000
    156      54.7771      0.00000
    157      55.3734      0.00000
    158      55.3734      0.00000
    159      55.7928      0.00000
    160      56.2745      0.00000
    161      57.0927      0.00000
    162      57.3818      0.00000
    163      57.3818      0.00000
    164      57.5734      0.00000
    165      58.1994      0.00000
    166      58.1994      0.00000
    167      58.7271      0.00000
    168      59.0574      0.00000
    169      59.7417      0.00000
    170      59.7417      0.00000
    171      60.4796      0.00000
    172      60.4796      0.00000
    173      61.1469      0.00000
    174      61.4338      0.00000
    175      61.4338      0.00000
    176      61.6951      0.00000
    177      61.8744      0.00000
    178      61.8744      0.00000
    179      62.1862      0.00000
    180      62.1867      0.00000
    181      62.1868      0.00000
    182      62.2116      0.00000
    183      62.4069      0.00000
    184      62.9275      0.00000
    185      62.9275      0.00000
    186      62.9801      0.00000
    187      62.9801      0.00000
    188      63.5265      0.00000
    189      64.1718      0.00000
    190      64.1718      0.00000
    191      65.1593      0.00000
    192      65.1593      0.00000
    193      65.3125      0.00000
    194      65.6340      0.00000
    195      65.7356      0.00000
    196      65.7356      0.00000
    197      66.0540      0.00000
    198      66.8317      0.00000
    199      66.8317      0.00000
    200      66.9053      0.00000
    201      66.9053      0.00000
    202      67.2825      0.00000
    203      67.2825      0.00000
    204      67.7626      0.00000
    205      68.1295      0.00000
    206      68.5374      0.00000
    207      68.7140      0.00000
    208      68.7142      0.00000
    209      68.8336      0.00000
    210      68.8385      0.00000
    211      69.0624      0.00000
    212      69.0625      0.00000
    213      69.4020      0.00000
    214      70.0643      0.00000
    215      70.2049      0.00000
    216      70.2050      0.00000
    217      70.5512      0.00000
    218      70.6229      0.00000
    219      71.2147      0.00000
    220      71.2154      0.00000
    221      71.7235      0.00000
    222      71.7247      0.00000
    223      72.0574      0.00000
    224      72.0627      0.00000
    225      72.4879      0.00000
    226      72.9889      0.00000
    227      73.2095      0.00000
    228      73.2544      0.00000
    229      73.4370      0.00000
    230      73.4552      0.00000
    231      73.5354      0.00000
    232      73.5597      0.00000
    233      74.0055      0.00000
    234      74.0204      0.00000
    235      74.2157      0.00000
    236      74.3995      0.00000
    237      74.6293      0.00000
    238      74.9158      0.00000
    239      75.0099      0.00000
    240      75.2254      0.00000

 k-point     2 :       0.0172    0.0000    0.0000
  band No.  band energies     occupation 
      1      -5.8833      2.00000
      2      -4.6640      2.00000
      3      -0.5158      2.00000
      4       3.2380      2.00000
      5       3.2565      2.00000
      6       3.9274      2.00000
      7       3.9577      2.00000
      8       4.3479      1.99977
      9       5.3846      0.00000
     10       5.5439      0.00000
     11       7.3534      0.00000
     12       7.3796      0.00000
     13       8.1789      0.00000
     14       8.3631      0.00000
     15       8.3832      0.00000
     16       9.2997      0.00000
     17       9.3331      0.00000
     18       9.3425      0.00000
     19       9.8237      0.00000
     20       9.8464      0.00000
     21      10.1028      0.00000
     22      10.9032      0.00000
     23      11.1657      0.00000
     24      15.1877      0.00000
     25      15.2201      0.00000
     26      15.9616      0.00000
     27      16.0279      0.00000
     28      16.3402      0.00000
     29      16.3520      0.00000
     30      16.7164      0.00000
     31      16.7298      0.00000
     32      17.2247      0.00000
     33      17.2260      0.00000
     34      19.2806      0.00000
     35      19.4083      0.00000
     36      21.3341      0.00000
     37      21.6606      0.00000
     38      22.2246      0.00000
     39      22.3200      0.00000
     40      23.3193      0.00000
     41      23.4919      0.00000
     42      23.5011      0.00000
     43      23.6979      0.00000
     44      23.7138      0.00000
     45      24.1869      0.00000
     46      24.1893      0.00000
     47      24.5107      0.00000
     48      24.7056      0.00000
     49      25.1829      0.00000
     50      25.5161      0.00000
     51      25.5224      0.00000
     52      25.7757      0.00000
     53      25.8350      0.00000
     54      26.3111      0.00000
     55      26.3266      0.00000
     56      27.5673      0.00000
     57      28.4364      0.00000
     58      28.4548      0.00000
     59      28.4607      0.00000
     60      28.6087      0.00000
     61      28.6344      0.00000
     62      29.3257      0.00000
     63      29.3432      0.00000
     64      29.6956      0.00000
     65      29.7016      0.00000
     66      30.1105      0.00000
     67      30.1846      0.00000
     68      30.7061      0.00000
     69      30.7288      0.00000
     70      31.5869      0.00000
     71      31.7038      0.00000
     72      32.1011      0.00000
     73      32.1040      0.00000
     74      32.5327      0.00000
     75      32.5420      0.00000
     76      32.7574      0.00000
     77      33.2821      0.00000
     78      34.3436      0.00000
     79      34.3936      0.00000
     80      34.4799      0.00000
     81      34.5170      0.00000
     82      34.7714      0.00000
     83      34.7828      0.00000
     84      34.9787      0.00000
     85      35.0148      0.00000
     86      35.5464      0.00000
     87      35.6448      0.00000
     88      35.6887      0.00000
     89      35.7179      0.00000
     90      35.7546      0.00000
     91      36.5437      0.00000
     92      36.5658      0.00000
     93      37.2211      0.00000
     94      37.4361      0.00000
     95      37.4684      0.00000
     96      37.9107      0.00000
     97      38.0729      0.00000
     98      38.4561      0.00000
     99      38.9037      0.00000
    100      39.5824      0.00000
    101      39.6197      0.00000
    102      39.8848      0.00000
    103      40.8028      0.00000
    104      40.8062      0.00000
    105      41.1709      0.00000
    106      41.6540      0.00000
    107      41.6563      0.00000
    108      42.6407      0.00000
    109      42.7374      0.00000
    110      42.7542      0.00000
    111      43.1693      0.00000
    112      43.7041      0.00000
    113      43.7054      0.00000
    114      45.4273      0.00000
    115      45.4326      0.00000
    116      45.7348      0.00000
    117      46.1172      0.00000
    118      46.4557      0.00000
    119      46.5846      0.00000
    120      46.7404      0.00000
    121      46.7566      0.00000
    122      47.7080      0.00000
    123      47.8330      0.00000
    124      48.1268      0.00000
    125      48.2256      0.00000
    126      48.5639      0.00000
    127      48.5692      0.00000
    128      48.6561      0.00000
    129      48.9053      0.00000
    130      48.9579      0.00000
    131      49.1555      0.00000
    132      49.1810      0.00000
    133      49.6488      0.00000
    134      49.6542      0.00000
    135      49.7622      0.00000
    136      49.8767      0.00000
    137      50.0148      0.00000
    138      50.0154      0.00000
    139      50.1965      0.00000
    140      50.2025      0.00000
    141      50.6824      0.00000
    142      50.8245      0.00000
    143      50.8468      0.00000
    144      51.1117      0.00000
    145      51.1327      0.00000
    146      51.1406      0.00000
    147      52.0631      0.00000
    148      52.1121      0.00000
    149      53.2737      0.00000
    150      53.9131      0.00000
    151      53.9910      0.00000
    152      54.1673      0.00000
    153      54.4233      0.00000
    154      54.4935      0.00000
    155      54.7772      0.00000
    156      54.8037      0.00000
    157      55.3632      0.00000
    158      55.3863      0.00000
    159      55.7628      0.00000
    160      56.2694      0.00000
    161      56.9947      0.00000
    162      57.3881      0.00000
    163      57.5041      0.00000
    164      57.5495      0.00000
    165      58.1757      0.00000
    166      58.1796      0.00000
    167      58.7362      0.00000
    168      59.0786      0.00000
    169      59.6613      0.00000
    170      59.7339      0.00000
    171      60.4021      0.00000
    172      60.4479      0.00000
    173      61.1940      0.00000
    174      61.3831      0.00000
[...]
    173      60.7851      0.00000
    174      61.2262      0.00000
    175      61.2279      0.00000
    176      61.4556      0.00000
    177      62.1086      0.00000
    178      62.1916      0.00000
    179      62.2708      0.00000
    180      62.6144      0.00000
    181      62.6937      0.00000
    182      62.7080      0.00000
    183      62.7399      0.00000
    184      62.8368      0.00000
    185      62.9659      0.00000
    186      63.1817      0.00000
    187      63.2677      0.00000
    188      63.5432      0.00000
    189      63.7894      0.00000
    190      63.8411      0.00000
    191      63.8714      0.00000
    192      64.2389      0.00000
    193      64.6210      0.00000
    194      64.6489      0.00000
    195      64.6835      0.00000
    196      65.0972      0.00000
    197      65.1627      0.00000
    198      65.3457      0.00000
    199      65.4319      0.00000
    200      65.7742      0.00000
    201      65.8437      0.00000
    202      66.2308      0.00000
    203      66.5221      0.00000
    204      67.1933      0.00000
    205      67.2174      0.00000
    206      67.5255      0.00000
    207      67.7102      0.00000
    208      68.0901      0.00000
    209      68.3974      0.00000
    210      68.4981      0.00000
    211      68.5137      0.00000
    212      68.6484      0.00000
    213      68.7337      0.00000
    214      69.0648      0.00000
    215      69.3235      0.00000
    216      69.6669      0.00000
    217      70.0072      0.00000
    218      70.1190      0.00000
    219      70.2401      0.00000
    220      70.3556      0.00000
    221      70.3968      0.00000
    222      70.5884      0.00000
    223      70.6633      0.00000
    224      71.2150      0.00000
    225      71.2355      0.00000
    226      71.7261      0.00000
    227      71.7479      0.00000
    228      71.8492      0.00000
    229      72.4388      0.00000
    230      72.8104      0.00000
    231      72.8828      0.00000
    232      73.6132      0.00000
    233      74.2948      0.00000
    234      74.6387      0.00000
    235      75.0847      0.00000
    236      75.2231      0.00000
    237      75.4298      0.00000
    238      75.5718      0.00000
    239      75.9902      0.00000
    240      76.3408      0.00000

 k-point   210 :       0.0000    0.0000    0.5000
  band No.  band energies     occupation 
      1      -5.4908      2.00000
      2      -5.2825      2.00000
      3       1.2907      2.00000
      4       1.3626      2.00000
      5       3.5746      2.00000
      6       3.5746      2.00000
      7       3.6248      2.00000
      8       3.6248      2.00000
      9       6.0805      0.00000
     10       6.1342      0.00000
     11       7.0272      0.00000
     12       7.0272      0.00000
     13       7.8868      0.00000
     14       7.8868      0.00000
     15       8.1525      0.00000
     16       8.7121      0.00000
     17      10.7690      0.00000
     18      10.8354      0.00000
     19      10.8355      0.00000
     20      11.0700      0.00000
     21      11.6898      0.00000
     22      11.6899      0.00000
     23      12.5111      0.00000
     24      12.5111      0.00000
     25      12.5835      0.00000
     26      12.5835      0.00000
     27      13.0087      0.00000
     28      14.6641      0.00000
     29      15.6995      0.00000
     30      16.2048      0.00000
     31      20.5520      0.00000
     32      20.5520      0.00000
     33      21.0933      0.00000
     34      21.0933      0.00000
     35      21.3807      0.00000
     36      21.5998      0.00000
     37      21.7088      0.00000
     38      21.7088      0.00000
     39      22.2273      0.00000
     40      22.2273      0.00000
     41      23.1448      0.00000
     42      23.1448      0.00000
     43      23.3243      0.00000
     44      23.6574      0.00000
     45      23.9012      0.00000
     46      24.0686      0.00000
     47      24.0686      0.00000
     48      24.3628      0.00000
     49      24.3628      0.00000
     50      24.4057      0.00000
     51      24.4057      0.00000
     52      24.5467      0.00000
     53      26.6698      0.00000
     54      26.6698      0.00000
     55      26.8304      0.00000
     56      26.9179      0.00000
     57      26.9179      0.00000
     58      27.2871      0.00000
     59      27.3054      0.00000
     60      27.3054      0.00000
     61      28.9429      0.00000
     62      29.1012      0.00000
     63      29.1012      0.00000
     64      29.9154      0.00000
     65      29.9154      0.00000
     66      30.5468      0.00000
     67      30.6510      0.00000
     68      30.6882      0.00000
     69      30.8714      0.00000
     70      31.8769      0.00000
     71      32.0495      0.00000
     72      32.1995      0.00000
     73      32.7707      0.00000
     74      32.7707      0.00000
     75      32.9208      0.00000
     76      32.9208      0.00000
     77      33.6586      0.00000
     78      33.6587      0.00000
     79      33.9595      0.00000
     80      33.9595      0.00000
     81      35.1252      0.00000
     82      35.3630      0.00000
     83      35.4325      0.00000
     84      35.4325      0.00000
     85      35.4888      0.00000
     86      35.4888      0.00000
     87      36.0946      0.00000
     88      36.2741      0.00000
     89      36.2741      0.00000
     90      36.7164      0.00000
     91      36.7165      0.00000
     92      36.9196      0.00000
     93      37.5658      0.00000
     94      37.5658      0.00000
     95      38.8745      0.00000
     96      38.9370      0.00000
     97      38.9370      0.00000
     98      39.4247      0.00000
     99      39.9323      0.00000
    100      40.1069      0.00000
    101      40.1069      0.00000
    102      40.6841      0.00000
    103      40.7730      0.00000
    104      40.7730      0.00000
    105      41.0219      0.00000
    106      41.0219      0.00000
    107      41.1431      0.00000
    108      41.1431      0.00000
    109      41.9940      0.00000
    110      42.4012      0.00000
    111      42.5326      0.00000
    112      42.5326      0.00000
    113      43.7148      0.00000
    114      43.7148      0.00000
    115      43.8497      0.00000
    116      44.3709      0.00000
    117      44.3709      0.00000
    118      44.7402      0.00000
    119      45.0674      0.00000
    120      45.1703      0.00000
    121      45.1703      0.00000
    122      46.2127      0.00000
    123      46.7339      0.00000
    124      47.6730      0.00000
    125      48.0385      0.00000
    126      48.3323      0.00000
    127      48.3323      0.00000
    128      48.7417      0.00000
    129      48.7419      0.00000
    130      49.1531      0.00000
    131      49.1532      0.00000
    132      49.5435      0.00000
    133      49.6413      0.00000
    134      49.6415      0.00000
    135      49.7713      0.00000
    136      50.1470      0.00000
    137      50.1471      0.00000
    138      50.1894      0.00000
    139      50.1895      0.00000
    140      50.5483      0.00000
    141      50.8641      0.00000
    142      51.2772      0.00000
    143      51.8663      0.00000
    144      51.8663      0.00000
    145      52.3352      0.00000
    146      52.3696      0.00000
    147      52.3697      0.00000
    148      52.8257      0.00000
    149      52.8257      0.00000
    150      52.9766      0.00000
    151      53.9962      0.00000
    152      55.5900      0.00000
    153      56.1546      0.00000
    154      56.1546      0.00000
    155      56.3066      0.00000
    156      56.3066      0.00000
    157      56.5342      0.00000
    158      56.8909      0.00000
    159      56.9070      0.00000
    160      56.9070      0.00000
    161      57.0814      0.00000
    162      58.0386      0.00000
    163      58.0386      0.00000
    164      58.2695      0.00000
    165      59.3438      0.00000
    166      59.4343      0.00000
    167      59.4343      0.00000
    168      59.6311      0.00000
    169      59.6311      0.00000
    170      60.0082      0.00000
    171      60.5386      0.00000
    172      60.5386      0.00000
    173      60.8143      0.00000
    174      61.2390      0.00000
    175      61.2390      0.00000
    176      61.4962      0.00000
    177      62.1254      0.00000
    178      62.3201      0.00000
    179      62.3201      0.00000
    180      62.6524      0.00000
    181      62.6524      0.00000
    182      62.8138      0.00000
    183      62.9578      0.00000
    184      62.9578      0.00000
    185      62.9937      0.00000
    186      62.9937      0.00000
    187      63.0843      0.00000
    188      63.6249      0.00000
    189      63.6249      0.00000
    190      63.8838      0.00000
    191      63.8838      0.00000
    192      63.9170      0.00000
    193      64.6574      0.00000
    194      64.7667      0.00000
    195      64.7667      0.00000
    196      65.0422      0.00000
    197      65.1832      0.00000
    198      65.1832      0.00000
    199      65.3022      0.00000
    200      65.8243      0.00000
    201      65.8243      0.00000
    202      66.2353      0.00000
    203      66.4449      0.00000
    204      67.2382      0.00000
    205      67.2382      0.00000
    206      67.9209      0.00000
    207      67.9210      0.00000
    208      68.1422      0.00000
    209      68.1422      0.00000
    210      68.3176      0.00000
    211      68.6204      0.00000
    212      68.6205      0.00000
    213      68.7005      0.00000
    214      68.7363      0.00000
    215      69.7465      0.00000
    216      69.7816      0.00000
    217      69.7816      0.00000
    218      70.0335      0.00000
    219      70.0336      0.00000
    220      70.2171      0.00000
    221      70.4172      0.00000
    222      70.5413      0.00000
    223      70.5413      0.00000
    224      71.3159      0.00000
    225      71.3161      0.00000
    226      71.7314      0.00000
    227      71.7314      0.00000
    228      71.7833      0.00000
    229      72.4033      0.00000
    230      72.8907      0.00000
    231      72.8916      0.00000
    232      73.5000      0.00000
    233      74.3727      0.00000
    234      74.7071      0.00000
    235      75.1293      0.00000
    236      75.2306      0.00000
    237      75.3785      0.00000
    238      75.5915      0.00000
    239      75.7495      0.00000
    240      76.3047      0.00000


--------------------------------------------------------------------------------------------------------


 soft charge-density along one line, spin component           1
         0         1         2         3         4         5         6         7         8         9
 total charge-density along one line
 
 pseudopotential strength for first ion, spin component:           1
  2.982   9.540  -0.000  -0.000   0.000  -0.000  -0.000   0.000
  9.540  30.342  -0.000  -0.000   0.000  -0.000  -0.000   0.000
 -0.000  -0.000   7.060  -0.000  -0.000  10.404  -0.000  -0.000
 -0.000  -0.000  -0.000   7.060   0.000  -0.000  10.405   0.000
  0.000   0.000  -0.000   0.000   7.060  -0.000   0.000  10.404
 -0.000  -0.000  10.404  -0.000  -0.000  14.481  -0.000  -0.000
 -0.000  -0.000  -0.000  10.405   0.000  -0.000  14.483   0.000
  0.000   0.000  -0.000   0.000  10.404  -0.000   0.000  14.481
 -0.000  -0.000   0.000  -0.000   0.000   0.000  -0.000   0.000
 -0.000  -0.000  -0.000  -0.000  -0.000  -0.000  -0.000  -0.000
  0.000   0.001   0.000  -0.000  -0.000   0.000  -0.000  -0.000
  0.000   0.000  -0.000   0.000  -0.000  -0.000   0.000  -0.000
  0.000   0.000   0.000  -0.000   0.000   0.000  -0.000   0.000
 total augmentation occupancy for first ion, spin component:           1
  2.000   0.000   0.000   0.000   0.000   0.000   0.000   0.000   0.000   0.000   0.000   0.000   0.000
  0.000   0.000   0.000   0.000   0.000   0.000   0.000   0.000   0.000   0.000   0.000   0.000   0.000
  0.000   0.000   0.000   0.000   0.000   0.000   0.000   0.000   0.000   0.000   0.000   0.000   0.000
  0.000   0.000   0.000   0.000   0.000   0.000   0.000   0.000   0.000   0.000   0.000   0.000   0.000
  0.000   0.000   0.000   0.000   0.000   0.000   0.000   0.000   0.000   0.000   0.000   0.000   0.000
  0.000   0.000   0.000   0.000   0.000   0.000   0.000   0.000   0.000   0.000   0.000   0.000   0.000
  0.000   0.000   0.000   0.000   0.000   0.000   0.000   0.000   0.000   0.000   0.000   0.000   0.000
  0.000   0.000   0.000   0.000   0.000   0.000   0.000   0.000   0.000   0.000   0.000   0.000   0.000
  0.000   0.000   0.000   0.000   0.000   0.000   0.000   0.000   0.000   0.000   0.000   0.000   0.000
  0.000   0.000   0.000   0.000   0.000   0.000   0.000   0.000   0.000   0.000   0.000   0.000   0.000
  0.000   0.000   0.000   0.000   0.000   0.000   0.000   0.000   0.000   0.000   0.000   0.000   0.000
  0.000   0.000   0.000   0.000   0.000   0.000   0.000   0.000   0.000   0.000   0.000   0.000   0.000
  0.000   0.000   0.000   0.000   0.000   0.000   0.000   0.000   0.000   0.000   0.000   0.000   0.000


------------------------ aborting loop because EDIFF is reached ----------------------------------------


 


 total charge     
 
# of ion       s       p       d       tot
------------------------------------------
    1        0.146   0.090   0.019   0.255
    2        0.167   0.124   0.027   0.317
    3        0.167   0.124   0.027   0.317
    4        1.101   1.502   0.010   2.612
    5        1.101   1.502   0.010   2.612
--------------------------------------------------
tot          2.681   3.341   0.093   6.114
 
    CHARGE:  cpu time    0.0226: real time    0.0420
    FORLOC:  cpu time    0.0010: real time    0.0043
    FORNL :  cpu time    1.0307: real time    1.0689
    STRESS:  cpu time    1.1721: real time    1.1861
    FORCOR:  cpu time    0.0060: real time    0.0111
    FORHAR:  cpu time    0.0042: real time    0.0065
    OFIELD:  cpu time    0.0001: real time    0.0004

  FORCE on cell =-STRESS in cart. coord.  units (eV):
  Direction    XX          YY          ZZ          XY          YZ          ZX
  --------------------------------------------------------------------------------------
  Alpha Z     5.24900     5.24900     5.24900
  Ewald    -129.14694  -129.14692  -129.24091    -0.00001     0.00000     0.00000
  Hartree    10.14722    10.14722    12.34938     0.00000     0.00000     0.00000
  E(xc)     -56.31974   -56.31975   -55.62257    -0.00001    -0.00000     0.00000
  Local     -76.64694   -76.64698   -74.20537    -0.00003    -0.00000    -0.00000
  n-local   191.35831   193.57775   186.43195    -3.42460    -0.06822    -0.31354
  augment   -33.98199   -33.98196   -32.58556     0.00003    -0.00000    -0.00000
  Kinetic    91.50607    94.33374    90.02555    -2.32944     0.07904    -0.05537
  Fock        0.00000     0.00000     0.00000     0.00000     0.00000     0.00000
  -------------------------------------------------------------------------------------
  Total       4.68855     4.68855     2.40147     0.00000     0.00000     0.00000
  in kB      56.43342    56.43342    28.90510     0.00000     0.00000     0.00000
  external pressure =       47.26 kB  Pullay stress =        0.00 kB


 VOLUME and BASIS-vectors are now :
 -----------------------------------------------------------------------------
  energy-cutoff  :      400.00
  volume of cell :      133.11
      direct lattice vectors                 reciprocal lattice vectors
     4.597849902  0.000000000  0.000000000     0.217492963  0.125569621  0.000000000
    -2.298924951  3.981854818  0.000000000     0.000000000  0.251139242  0.000000000
     0.000000000  0.000000000  7.270638344     0.000000000  0.000000000  0.137539505

  length of vectors
     4.597849902  4.597849902  7.270638344     0.251139242  0.251139242  0.137539505


 FORCES acting on ions
    electron-ion (+dipol)            ewald-force                    non-local-force                 convergence-correction
 -----------------------------------------------------------------------------------------------
   -.128E-06 0.326E-14 0.590E-07   -.902E-06 -.217E-12 0.389E-06   0.331E-23 0.000E+00 0.000E+00   0.261E-06 0.129E-12 0.183E-06
   -.155E-05 0.174E-05 0.188E+01   -.167E-05 -.208E-05 -.230E+01   -.347E-17 0.000E+00 0.458E+00   0.117E-04 -.616E-05 -.273E-01
   -.316E-06 -.174E-05 -.188E+01   0.175E-05 0.208E-05 0.230E+01   -.104E-16 0.000E+00 -.458E+00   -.117E-04 0.616E-05 0.273E-01
   0.289E-06 -.137E-04 -.231E+01   -.171E-05 -.257E-05 0.752E+00   0.416E-16 0.000E+00 0.165E+01   0.687E-04 -.369E-04 0.271E-01
   0.231E-04 0.137E-04 0.231E+01   0.252E-05 0.257E-05 -.752E+00   -.694E-17 0.000E+00 -.165E+01   -.719E-04 0.369E-04 -.271E-01
 -----------------------------------------------------------------------------------------------
   0.214E-04 0.269E-11 -.391E-04   0.260E-15 0.310E-15 0.355E-14   0.208E-16 0.000E+00 0.000E+00   -.290E-05 0.127E-11 0.447E-05
 
 
 POSITION                                       TOTAL-FORCE (eV/Angst)
 -----------------------------------------------------------------------------------
      0.00000      0.00000      0.00000         0.000000      0.000000     -0.000000
     -0.00000      2.65457      4.59531         0.000000     -0.000000      0.005630
      2.29892      1.32728      2.67533         0.000000      0.000000     -0.005630
     -0.00000      2.65457      1.63863        -0.000000      0.000000      0.112768
      2.29892      1.32728      5.63201         0.000000     -0.000000     -0.112768
 -----------------------------------------------------------------------------------
    total drift:                                0.000019      0.000000     -0.000035


--------------------------------------------------------------------------------------------------------



  FREE ENERGIE OF THE ION-ELECTRON SYSTEM (eV)
  ---------------------------------------------------
  free  energy   TOTEN  =       -12.43244810 eV

  energy  without entropy=      -12.43244597  energy(sigma->0) =      -12.43244704
 


--------------------------------------------------------------------------------------------------------


    POTLOK:  cpu time    0.0123: real time    0.0157


--------------------------------------------------------------------------------------------------------


     LOOP+:  cpu time  106.5277: real time  106.9942
    4ORBIT:  cpu time    0.0000: real time    0.0000
 


 total charge     
 
# of ion       s       p       d       tot
------------------------------------------
    1        0.146   0.090   0.019   0.255
    2        0.167   0.124   0.027   0.317
    3        0.167   0.124   0.027   0.317
    4        1.101   1.502   0.010   2.612
    5        1.101   1.502   0.010   2.612
--------------------------------------------------
tot          2.681   3.341   0.093   6.114
 

 total amount of memory used by VASP MPI-rank0    69137. kBytes
=======================================================================

   base      :      30000. kBytes
   nonl-proj :      11202. kBytes
   fftplans  :        208. kBytes
   grid      :        302. kBytes
   one-center:          8. kBytes
   wavefun   :      27417. kBytes
 
  
  
 General timing and accounting informations for this job:
 ========================================================
  
                  Total CPU time used (sec):      166.668
                            User time (sec):      127.544
                          System time (sec):       39.124
                         Elapsed time (sec):      168.132
  
                   Maximum memory used (kb):      119056.
                   Average memory used (kb):           0.
  
                          Minor page faults:        25308
                          Major page faults:            0
                 Voluntary context switches:         1447
