 vasp.5.4.4.18Apr17-6-g9f103f2a35 (build May 24 2018 15:12:59) complex          
  
 executed on             LinuxIFC date 2021.02.16  10:41:45
 running on   80 total cores
 distrk:  each k-point on   80 cores,    1 groups
 distr:  one band on NCORES_PER_BAND=  10 cores,    8 groups


--------------------------------------------------------------------------------------------------------


 INCAR:
 POTCAR:    PAW_PBE Mg 13Apr2007                  
 POTCAR:    PAW_PBE Sb 06Sep2000                  
 POTCAR:    PAW_PBE Mg 13Apr2007                  
   VRHFIN =Mg: s2p0                                                             
   LEXCH  = PE                                                                  
   EATOM  =    23.0369 eV,    1.6932 Ry                                         
                                                                                
   TITEL  = PAW_PBE Mg 13Apr2007                                                
   LULTRA =        F    use ultrasoft PP ?                                      
   IUNSCR =        1    unscreen: 0-lin 1-nonlin 2-no                           
   RPACOR =    1.500    partial core radius                                     
   POMASS =   24.305; ZVAL   =    2.000    mass and valenz                      
   RCORE  =    2.000    outmost cutoff radius                                   
   RWIGS  =    2.880; RWIGS  =    1.524    wigner-seitz radius (au A)           
   ENMAX  =  126.143; ENMIN  =   94.607 eV                                      
   RCLOC  =    1.506    cutoff for local pot                                    
   LCOR   =        T    correct aug charges                                     
   LPAW   =        T    paw PP                                                  
   EAUG   =  454.734                                                            
   DEXC   =    0.000                                                            
   RMAX   =    2.045    core radius for proj-oper                               
   RAUG   =    1.300    factor for augmentation sphere                          
   RDEP   =    2.025    radius for radial grids                                 
   RDEPT  =    1.942    core radius for aug-charge                              
                                                                                
   Atomic configuration                                                         
    6 entries                                                                   
     n  l   j            E        occ.                                          
     1  0  0.50     -1259.6230   2.0000                                         
     2  0  0.50       -79.8442   2.0000                                         
     2  1  1.50       -46.6121   6.0000                                         
     3  0  0.50        -4.7055   2.0000                                         
     3  1  0.50        -1.3660   0.0000                                         
     3  2  1.50        -1.3606   0.0000                                         
   Description                                                                  
     l       E           TYP  RCUT    TYP  RCUT                                 
     0     -4.7054661     23  2.000                                             
     0     27.2116520     23  2.000                                             
     1      1.3605826     23  2.000                                             
     1     27.2116520     23  2.000                                             
     2     -1.3605826     23  2.000                                             
  local pseudopotential read in
  partial core-charges read in
  partial kinetic energy density read in
  atomic valenz-charges read in
  non local Contribution for L=           0  read in
    real space projection operators read in
  non local Contribution for L=           0  read in
    real space projection operators read in
  non local Contribution for L=           1  read in
    real space projection operators read in
  non local Contribution for L=           1  read in
    real space projection operators read in
  non local Contribution for L=           2  read in
    real space projection operators read in
    PAW grid and wavefunctions read in
 
   number of l-projection  operators is LMAX  =           5
   number of lm-projection operators is LMMAX =          13
 
 POTCAR:    PAW_PBE Sb 06Sep2000                  
   VRHFIN =Sb: s2p3                                                             
   LEXCH  = PE                                                                  
   EATOM  =   149.9515 eV,   11.0211 Ry                                         
                                                                                
   TITEL  = PAW_PBE Sb 06Sep2000                                                
   LULTRA =        F    use ultrasoft PP ?                                      
   IUNSCR =        1    unscreen: 0-lin 1-nonlin 2-no                           
   RPACOR =    2.200    partial core radius                                     
   POMASS =  121.750; ZVAL   =    5.000    mass and valenz                      
   RCORE  =    2.300    outmost cutoff radius                                   
   RWIGS  =    2.980; RWIGS  =    1.577    wigner-seitz radius (au A)           
   ENMAX  =  172.069; ENMIN  =  129.052 eV                                      
   ICORE  =        3    local potential                                         
   LCOR   =        T    correct aug charges                                     
   LPAW   =        T    paw PP                                                  
   EAUG   =  380.513                                                            
   DEXC   =    0.000                                                            
   RMAX   =    2.346    core radius for proj-oper                               
   RAUG   =    1.300    factor for augmentation sphere                          
   RDEP   =    2.360    radius for radial grids                                 
   RDEPT  =    2.192    core radius for aug-charge                              
                                                                                
   Atomic configuration                                                         
   13 entries                                                                   
     n  l   j            E        occ.                                          
     1  0  0.50    -30298.2797   2.0000                                         
     2  0  0.50     -4610.2252   2.0000                                         
     2  1  1.50     -4138.3407   6.0000                                         
     3  0  0.50      -903.8815   2.0000                                         
     3  1  1.50      -750.1337   6.0000                                         
     3  2  2.50      -515.7092  10.0000                                         
     4  0  0.50      -148.8034   2.0000                                         
     4  1  1.50      -101.7581   6.0000                                         
     4  2  2.50       -33.5048  10.0000                                         
     5  0  0.50       -12.8298   2.0000                                         
     5  1  0.50        -4.8276   3.0000                                         
     5  2  1.50        -4.0817   0.0000                                         
     4  3  2.50        -4.0817   0.0000                                         
   Description                                                                  
     l       E           TYP  RCUT    TYP  RCUT                                 
     0    -12.8297861     23  2.300                                             
     0     13.6058260     23  2.300                                             
     1     -4.8275512     23  2.300                                             
     1     -0.7245443     23  2.300                                             
     2     -4.0817478     23  2.300                                             
     3     -1.3605826     23  2.300                                             
  local pseudopotential read in
  partial core-charges read in
  partial kinetic energy density read in
  atomic valenz-charges read in
  non local Contribution for L=           0  read in
    real space projection operators read in
  non local Contribution for L=           0  read in
    real space projection operators read in
  non local Contribution for L=           1  read in
    real space projection operators read in
  non local Contribution for L=           1  read in
    real space projection operators read in
  non local Contribution for L=           2  read in
    real space projection operators read in
    PAW grid and wavefunctions read in
 
   number of l-projection  operators is LMAX  =           5
   number of lm-projection operators is LMMAX =          13
 
  PAW_PBE Mg 13Apr2007                  :
 energy of atom  1       EATOM=  -23.0369
 kinetic energy error for atom=    0.0001 (will be added to EATOM!!)
  PAW_PBE Sb 06Sep2000                  :
 energy of atom  2       EATOM= -149.9515
 kinetic energy error for atom=    0.0008 (will be added to EATOM!!)
 
 
 POSCAR: Mg3Sb2                                  
  positions in direct lattice
  velocities in cartesian coordinates
 exchange correlation table for  LEXCH =        8
   RHO(1)=    0.500       N(1)  =     2000
   RHO(2)=  100.500       N(2)  =     4000
 


--------------------------------------------------------------------------------------------------------


 ion  position               nearest neighbor table
   1  0.000  0.000  0.000-   5 3.12   5 3.12   5 3.12   4 3.12   4 3.12   4 3.12
   2  0.333  0.667  0.632-   5 2.85   5 2.85   5 2.85   4 2.96   3 3.28   3 3.28   3 3.28
   3  0.667  0.333  0.368-   4 2.85   4 2.85   4 2.85   5 2.96   2 3.28   2 3.28   2 3.28
   4  0.333  0.667  0.225-   3 2.85   3 2.85   3 2.85   2 2.96   1 3.12   1 3.12   1 3.12
   5  0.667  0.333  0.775-   2 2.85   2 2.85   2 2.85   3 2.96   1 3.12   1 3.12   1 3.12
 
  LATTYP: Found a hexagonal cell.
 ALAT       =     4.5978499023
 C/A-ratio  =     1.5813126784
  
  Lattice vectors:
  
 A1 = (   4.5978499024,   0.0000000000,   0.0000000000)
 A2 = (  -2.2989249512,   3.9818548182,   0.0000000000)
 A3 = (   0.0000000000,   0.0000000000,   7.2706383437)


Analysis of symmetry for initial positions (statically):
=====================================================================
 Subroutine PRICEL returns:
 Original cell was already a primitive cell.
 

 Routine SETGRP: Setting up the symmetry group for a 
 hexagonal supercell.


 Subroutine GETGRP returns: Found 12 space group operations
 (whereof 12 operations were pure point group operations)
 out of a pool of 24 trial point group operations.


The static configuration has the point symmetry D_3d.


Analysis of symmetry for dynamics (positions and initial velocities):
=====================================================================
 Subroutine PRICEL returns:
 Original cell was already a primitive cell.
 

 Routine SETGRP: Setting up the symmetry group for a 
 hexagonal supercell.


 Subroutine GETGRP returns: Found 12 space group operations
 (whereof 12 operations were pure point group operations)
 out of a pool of 24 trial point group operations.


The dynamic configuration has the point symmetry D_3d.


 Subroutine INISYM returns: Found 12 space group operations
 (whereof 12 operations are pure point group operations),
 and found     1 'primitive' translations

 
 
 KPOINTS: Automatically generated mesh            
  k-points in reciprocal lattice
Space group operators:
 irot       det(A)        alpha          n_x          n_y          n_z        tau_x        tau_y        tau_z
    1     1.000000     0.000001     1.000000     0.000000     0.000000     0.000000     0.000000     0.000000
    2    -1.000000     0.000001     1.000000     0.000000     0.000000     0.000000     0.000000     0.000000
    3     1.000000   120.000000     0.000000     0.000000    -1.000000     0.000000     0.000000     0.000000
    4    -1.000000   120.000000     0.000000     0.000000    -1.000000     0.000000     0.000000     0.000000
    5     1.000000   120.000000     0.000000     0.000000     1.000000     0.000000     0.000000     0.000000
    6    -1.000000   120.000000     0.000000     0.000000     1.000000     0.000000     0.000000     0.000000
    7     1.000000   180.000000     1.000000     0.000000     0.000000     0.000000     0.000000     0.000000
    8    -1.000000   180.000000     1.000000     0.000000     0.000000     0.000000     0.000000     0.000000
    9     1.000000   180.000000     0.500000    -0.866025     0.000000     0.000000     0.000000     0.000000
   10    -1.000000   180.000000     0.500000    -0.866025     0.000000     0.000000     0.000000     0.000000
   11     1.000000   180.000000    -0.500000    -0.866025     0.000000     0.000000     0.000000     0.000000
   12    -1.000000   180.000000    -0.500000    -0.866025     0.000000     0.000000     0.000000     0.000000


--------------------------------------------------------------------------------------------------------




 Dimension of arrays:
   k-points           NKPTS =    250   k-points in BZ     NKDIM =    250   number of bands    NBANDS=     16
   number of dos      NEDOS =    301   number of ions     NIONS =      5
   non local maximal  LDIM  =      5   non local SUM 2l+1 LMDIM =     13
   total plane-waves  NPLWV =  20736
   max r-space proj   IRMAX =      1   max aug-charges    IRDMAX=   8844
   dimension x,y,z NGX =    24 NGY =   24 NGZ =   36
   dimension x,y,z NGXF=    48 NGYF=   48 NGZF=   72
   support grid    NGXF=    48 NGYF=   48 NGZF=   72
   ions per type =               3   2
   NGX,Y,Z   is equivalent  to a cutoff of   8.68,  8.68,  8.23 a.u.
   NGXF,Y,Z  is equivalent  to a cutoff of  17.36, 17.36, 16.46 a.u.

 SYSTEM =  unknown system                          
 POSCAR =  Mg3Sb2                                  

 Startparameter for this run:
   NWRITE =      2    write-flag & timer
   PREC   = normal    normal or accurate (medium, high low for compatibility)
   ISTART =      0    job   : 0-new  1-cont  2-samecut
   ICHARG =      2    charge: 1-file 2-atom 10-const
   ISPIN  =      1    spin polarized calculation?
   LNONCOLLINEAR =      F non collinear calculations
   LSORBIT =      F    spin-orbit coupling
   INIWAV =      1    electr: 0-lowe 1-rand  2-diag
   LASPH  =      F    aspherical Exc in radial PAW
   METAGGA=      F    non-selfconsistent MetaGGA calc.

 Electronic Relaxation 1
   ENCUT  =  400.0 eV  29.40 Ry    5.42 a.u.   7.50  7.50 11.86*2*pi/ulx,y,z
   ENINI  =  400.0     initial cutoff
   ENAUG  =  454.7 eV  augmentation charge cutoff
   NELM   =    300;   NELMIN=  2; NELMDL= -5     # of ELM steps 
   EDIFF  = 0.1E-05   stopping-criterion for ELM
   LREAL  =      F    real-space projection
   NLSPLINE    = F    spline interpolate recip. space projectors
   LCOMPAT=      F    compatible to vasp.4.4
   GGA_COMPAT  = T    GGA compatible to vasp.4.4-vasp.4.6
   LMAXPAW     = -100 max onsite density
   LMAXMIX     =    2 max onsite mixed and CHGCAR
   VOSKOWN=      0    Vosko Wilk Nusair interpolation
   ROPT   =    0.00000   0.00000
 Ionic relaxation
   EDIFFG = 0.1E-04   stopping-criterion for IOM
   NSW    =      0    number of steps for IOM
   NBLOCK =      1;   KBLOCK =      1    inner block; outer block 
   IBRION =     -1    ionic relax: 0-MD 1-quasi-New 2-CG
   NFREE  =      0    steps in history (QN), initial steepest desc. (CG)
   ISIF   =      2    stress and relaxation
   IWAVPR =     10    prediction:  0-non 1-charg 2-wave 3-comb
   ISYM   =      2    0-nonsym 1-usesym 2-fastsym
   LCORR  =      T    Harris-Foulkes like correction to forces

   POTIM  = 0.5000    time-step for ionic-motion
   TEIN   =    0.0    initial temperature
   TEBEG  =    0.0;   TEEND  =   0.0 temperature during run
   SMASS  =  -3.00    Nose mass-parameter (am)
   estimated Nose-frequenzy (Omega)   =  0.10E-29 period in steps =****** mass=  -0.483E-27a.u.
   SCALEE = 1.0000    scale energy and forces
   NPACO  =    256;   APACO  = 16.0  distance and # of slots for P.C.
   PSTRESS=    0.0 pullay stress

  Mass of Ions in am
   POMASS =  24.30121.75
  Ionic Valenz
   ZVAL   =   2.00  5.00
  Atomic Wigner-Seitz radii
   RWIGS  =  -1.00 -1.00
  virtual crystal weights 
   VCA    =   1.00  1.00
   NELECT =      16.0000    total number of electrons
   NUPDOWN=      -1.0000    fix difference up-down

 DOS related values:
   EMIN   =  10.00;   EMAX   =-10.00  energy-range for DOS
   EFERMI =   0.00
   ISMEAR =    -5;   SIGMA  =   0.20  broadening in eV -4-tet -1-fermi 0-gaus

 Electronic relaxation 2 (details)
   IALGO  =     38    algorithm
   LDIAG  =      T    sub-space diagonalisation (order eigenvalues)
   LSUBROT=      F    optimize rotation matrix (better conditioning)
   TURBO    =      0    0=normal 1=particle mesh
   IRESTART =      0    0=no restart 2=restart with 2 vectors
   NREBOOT  =      0    no. of reboots
   NMIN     =      0    reboot dimension
   EREF     =   0.00    reference energy to select bands
   IMIX   =      4    mixing-type and parameters
     AMIX     =   0.40;   BMIX     =  1.00
     AMIX_MAG =   1.60;   BMIX_MAG =  1.00
     AMIN     =   0.10
     WC   =   100.;   INIMIX=   1;  MIXPRE=   1;  MAXMIX= -45

 Intra band minimization:
   WEIMIN = 0.0000     energy-eigenvalue tresh-hold
   EBREAK =  0.16E-07  absolut break condition
   DEPER  =   0.30     relativ break condition  

   TIME   =   0.40     timestep for ELM

  volume/ion in A,a.u.               =      26.62       179.65
  Fermi-wavevector in a.u.,A,eV,Ry     =   0.807937  1.526779  8.881358  0.652761
  Thomas-Fermi vector in A             =   1.916649
 
 Write flags
   LWAVE        =      T    write WAVECAR
   LDOWNSAMPLE  =      F    k-point downsampling of WAVECAR
   LCHARG       =      T    write CHGCAR
   LVTOT        =      F    write LOCPOT, total local potential
   LVHAR        =      F    write LOCPOT, Hartree potential only
   LELF         =      F    write electronic localiz. function (ELF)
   LORBIT       =      0    0 simple, 1 ext, 2 COOP (PROOUT), +10 PAW based schemes


 Dipole corrections
   LMONO  =      F    monopole corrections only (constant potential shift)
   LDIPOL =      F    correct potential (dipole corrections)
   IDIPOL =      0    1-x, 2-y, 3-z, 4-all directions 
   EPSILON=  1.0000000 bulk dielectric constant

 Exchange correlation treatment:
   GGA     =    --    GGA type
   LEXCH   =     8    internal setting for exchange type
   VOSKOWN=      0    Vosko Wilk Nusair interpolation
   LHFCALC =     F    Hartree Fock is set to
   LHFONE  =     F    Hartree Fock one center treatment
   AEXX    =    0.0000 exact exchange contribution

 Linear response parameters
   LEPSILON=     F    determine dielectric tensor
   LRPA    =     F    only Hartree local field effects (RPA)
   LNABLA  =     F    use nabla operator in PAW spheres
   LVEL    =     F    velocity operator in full k-point grid
   LINTERFAST=   F  fast interpolation
   KINTER  =     0    interpolate to denser k-point grid
   CSHIFT  =0.1000    complex shift for real part using Kramers Kronig
   OMEGAMAX=  -1.0    maximum frequency
   DEG_THRESHOLD= 0.2000000E-02 threshold for treating states as degnerate
   RTIME   =   -0.100 relaxation time in fs
  (WPLASMAI=    0.000 imaginary part of plasma frequency in eV, 0.658/RTIME)
   DFIELD  = 0.0000000 0.0000000 0.0000000 field for delta impulse in time
 
 Orbital magnetization related:
   ORBITALMAG=     F  switch on orbital magnetization
   LCHIMAG   =     F  perturbation theory with respect to B field
   DQ        =  0.001000  dq finite difference perturbation B field
   LLRAUG    =     F  two centre corrections for induced B field



--------------------------------------------------------------------------------------------------------


 Static calculation
 charge density and potential will be updated during run
 non-spin polarized calculation
 Variant of blocked Davidson
 Davidson routine will perform the subspace rotation
 perform sub-space diagonalisation
    after iterative eigenvector-optimisation
 modified Broyden-mixing scheme, WC =      100.0
 initial mixing is a Kerker type mixing with AMIX =  0.4000 and BMIX =      1.0000
 Hartree-type preconditioning will be used
 using additional bands            8
 reciprocal scheme for non local part
 use partial core corrections
 calculate Harris-corrections to forces 
   (improved forces if not selfconsistent)
 use gradient corrections 
 use of overlap-Matrix (Vanderbilt PP)
 Fermi weights with tetrahedron method with Bloechl corrections


--------------------------------------------------------------------------------------------------------


  energy-cutoff  :      400.00
  volume of cell :      133.11
      direct lattice vectors                 reciprocal lattice vectors
     4.597849902  0.000000000  0.000000000     0.217492963  0.125569621  0.000000000
    -2.298924951  3.981854818  0.000000000     0.000000000  0.251139242  0.000000000
     0.000000000  0.000000000  7.270638344     0.000000000  0.000000000  0.137539505

  length of vectors
     4.597849902  4.597849902  7.270638344     0.251139242  0.251139242  0.137539505


 
 k-points in units of 2pi/SCALE and weight: Automatically generated mesh            
   0.00000000  0.00000000  0.00000000       0.003
   0.02718662  0.01569620  0.00000000       0.019
   0.05437324  0.03139241  0.00000000       0.019
   0.08155986  0.04708861  0.00000000       0.019
   0.10874648  0.06278481  0.00000000       0.009
   0.02718662  0.04708861  0.00000000       0.019
   0.05437324  0.06278481  0.00000000       0.037
   0.08155986  0.07848101  0.00000000       0.037
   0.05437324  0.09417722  0.00000000       0.019
   0.08155986  0.10987342  0.00000000       0.019
   0.00000000  0.00000000  0.02750790       0.006
   0.02718662  0.01569620  0.02750790       0.019
   0.05437324  0.03139241  0.02750790       0.019
   0.08155986  0.04708861  0.02750790       0.019
   0.10874648  0.06278481  0.02750790       0.019
  -0.08155986 -0.04708861  0.02750790       0.019
  -0.05437324 -0.03139241  0.02750790       0.019
  -0.02718662 -0.01569620  0.02750790       0.019
   0.02718662  0.04708861  0.02750790       0.037
   0.05437324  0.06278481  0.02750790       0.037
   0.08155986  0.07848101  0.02750790       0.037
   0.10874648  0.09417722  0.02750790       0.037
  -0.08155986 -0.01569620  0.02750790       0.037
   0.05437324  0.09417722  0.02750790       0.037
   0.08155986  0.10987342  0.02750790       0.037
   0.00000000  0.00000000  0.05501580       0.006
   0.02718662  0.01569620  0.05501580       0.019
   0.05437324  0.03139241  0.05501580       0.019
   0.08155986  0.04708861  0.05501580       0.019
   0.10874648  0.06278481  0.05501580       0.019
  -0.08155986 -0.04708861  0.05501580       0.019
  -0.05437324 -0.03139241  0.05501580       0.019
  -0.02718662 -0.01569620  0.05501580       0.019
   0.02718662  0.04708861  0.05501580       0.037
   0.05437324  0.06278481  0.05501580       0.037
   0.08155986  0.07848101  0.05501580       0.037
   0.10874648  0.09417722  0.05501580       0.037
  -0.08155986 -0.01569620  0.05501580       0.037
   0.05437324  0.09417722  0.05501580       0.037
   0.08155986  0.10987342  0.05501580       0.037
   0.00000000  0.00000000  0.00000000       0.000
   0.00374988  0.00216499  0.00000000       0.000
   0.00749976  0.00432999  0.00000000       0.000
   0.01124964  0.00649498  0.00000000       0.000
   0.01499952  0.00865997  0.00000000       0.000
   0.01874939  0.01082497  0.00000000       0.000
   0.02249927  0.01298996  0.00000000       0.000
   0.02624915  0.01515495  0.00000000       0.000
   0.02999903  0.01731995  0.00000000       0.000
   0.03374891  0.01948494  0.00000000       0.000
   0.03749879  0.02164993  0.00000000       0.000
   0.04124866  0.02381493  0.00000000       0.000
   0.04499854  0.02597992  0.00000000       0.000
   0.04874842  0.02814491  0.00000000       0.000
   0.05249830  0.03030991  0.00000000       0.000
   0.05624818  0.03247490  0.00000000       0.000
   0.05999806  0.03463990  0.00000000       0.000
   0.06374794  0.03680489  0.00000000       0.000
   0.06749782  0.03896988  0.00000000       0.000
   0.07124770  0.04113488  0.00000000       0.000
   0.07499757  0.04329987  0.00000000       0.000
   0.07874745  0.04546486  0.00000000       0.000
   0.08249733  0.04762986  0.00000000       0.000
   0.08624721  0.04979485  0.00000000       0.000
   0.08999709  0.05195984  0.00000000       0.000
   0.09374697  0.05412484  0.00000000       0.000
   0.09749685  0.05628983  0.00000000       0.000
   0.10124672  0.05845482  0.00000000       0.000
   0.10499660  0.06061982  0.00000000       0.000
   0.10874648  0.06278481  0.00000000       0.000
   0.10874648  0.06278481  0.00000000       0.000
   0.10749652  0.06494980  0.00000000       0.000
   0.10624656  0.06711480  0.00000000       0.000
   0.10499660  0.06927979  0.00000000       0.000
   0.10374664  0.07144478  0.00000000       0.000
   0.10249668  0.07360978  0.00000000       0.000
   0.10124672  0.07577477  0.00000000       0.000
   0.09999676  0.07793976  0.00000000       0.000
   0.09874681  0.08010476  0.00000000       0.000
   0.09749685  0.08226975  0.00000000       0.000
   0.09624689  0.08443475  0.00000000       0.000
   0.09499693  0.08659974  0.00000000       0.000
   0.09374697  0.08876473  0.00000000       0.000
   0.09249701  0.09092973  0.00000000       0.000
   0.09124705  0.09309472  0.00000000       0.000
   0.08999709  0.09525971  0.00000000       0.000
   0.08874713  0.09742471  0.00000000       0.000
   0.08749717  0.09958970  0.00000000       0.000
   0.08624721  0.10175469  0.00000000       0.000
   0.08499725  0.10391969  0.00000000       0.000
   0.08374729  0.10608468  0.00000000       0.000
   0.08249733  0.10824967  0.00000000       0.000
   0.08124737  0.11041467  0.00000000       0.000
   0.07999741  0.11257966  0.00000000       0.000
   0.07874745  0.11474465  0.00000000       0.000
   0.07749749  0.11690965  0.00000000       0.000
   0.07624753  0.11907464  0.00000000       0.000
   0.07499757  0.12123964  0.00000000       0.000
   0.07374761  0.12340463  0.00000000       0.000
   0.07249765  0.12556962  0.00000000       0.000
   0.07249765  0.12556962  0.00000000       0.000
   0.06999774  0.12123963  0.00000000       0.000
   0.06749782  0.11690965  0.00000000       0.000
   0.06499790  0.11257966  0.00000000       0.000
   0.06249798  0.10824967  0.00000000       0.000
   0.05999806  0.10391969  0.00000000       0.000
   0.05749814  0.09958970  0.00000000       0.000
   0.05499822  0.09525971  0.00000000       0.000
   0.05249830  0.09092973  0.00000000       0.000
   0.04999838  0.08659974  0.00000000       0.000
   0.04749846  0.08226975  0.00000000       0.000
   0.04499854  0.07793976  0.00000000       0.000
   0.04249863  0.07360978  0.00000000       0.000
   0.03999871  0.06927979  0.00000000       0.000
   0.03749879  0.06494980  0.00000000       0.000
   0.03499887  0.06061982  0.00000000       0.000
   0.03249895  0.05628983  0.00000000       0.000
   0.02999903  0.05195984  0.00000000       0.000
   0.02749911  0.04762986  0.00000000       0.000
   0.02499919  0.04329987  0.00000000       0.000
   0.02249927  0.03896988  0.00000000       0.000
   0.01999935  0.03463989  0.00000000       0.000
   0.01749943  0.03030991  0.00000000       0.000
   0.01499952  0.02597992  0.00000000       0.000
   0.01249959  0.02164993  0.00000000       0.000
   0.00999968  0.01731995  0.00000000       0.000
   0.00749976  0.01298996  0.00000000       0.000
   0.00499984  0.00865998  0.00000000       0.000
   0.00249992  0.00432999  0.00000000       0.000
   0.00000000  0.00000000  0.00000000       0.000
   0.00000000  0.00000000  0.00000000       0.000
   0.00000000  0.00000000  0.00237137       0.000
   0.00000000  0.00000000  0.00474274       0.000
   0.00000000  0.00000000  0.00711411       0.000
   0.00000000  0.00000000  0.00948548       0.000
   0.00000000  0.00000000  0.01185685       0.000
   0.00000000  0.00000000  0.01422823       0.000
   0.00000000  0.00000000  0.01659960       0.000
   0.00000000  0.00000000  0.01897097       0.000
   0.00000000  0.00000000  0.02134234       0.000
   0.00000000  0.00000000  0.02371371       0.000
   0.00000000  0.00000000  0.02608508       0.000
   0.00000000  0.00000000  0.02845645       0.000
   0.00000000  0.00000000  0.03082782       0.000
   0.00000000  0.00000000  0.03319919       0.000
   0.00000000  0.00000000  0.03557056       0.000
   0.00000000  0.00000000  0.03794193       0.000
   0.00000000  0.00000000  0.04031330       0.000
   0.00000000  0.00000000  0.04268467       0.000
   0.00000000  0.00000000  0.04505605       0.000
   0.00000000  0.00000000  0.04742742       0.000
   0.00000000  0.00000000  0.04979879       0.000
   0.00000000  0.00000000  0.05217016       0.000
   0.00000000  0.00000000  0.05454153       0.000
   0.00000000  0.00000000  0.05691290       0.000
   0.00000000  0.00000000  0.05928427       0.000
   0.00000000  0.00000000  0.06165564       0.000
   0.00000000  0.00000000  0.06402701       0.000
   0.00000000  0.00000000  0.06639838       0.000
   0.00000000  0.00000000  0.06876975       0.000
   0.00000000  0.00000000  0.06876975       0.000
   0.00374988  0.00216499  0.06876975       0.000
   0.00749976  0.00432999  0.06876975       0.000
   0.01124964  0.00649498  0.06876975       0.000
   0.01499952  0.00865997  0.06876975       0.000
   0.01874939  0.01082497  0.06876975       0.000
   0.02249927  0.01298996  0.06876975       0.000
   0.02624915  0.01515495  0.06876975       0.000
   0.02999903  0.01731995  0.06876975       0.000
   0.03374891  0.01948494  0.06876975       0.000
   0.03749879  0.02164993  0.06876975       0.000
   0.04124866  0.02381493  0.06876975       0.000
   0.04499854  0.02597992  0.06876975       0.000
   0.04874842  0.02814491  0.06876975       0.000
   0.05249830  0.03030991  0.06876975       0.000
   0.05624818  0.03247490  0.06876975       0.000
   0.05999806  0.03463990  0.06876975       0.000
   0.06374794  0.03680489  0.06876975       0.000
   0.06749782  0.03896988  0.06876975       0.000
   0.07124770  0.04113488  0.06876975       0.000
   0.07499757  0.04329987  0.06876975       0.000
   0.07874745  0.04546486  0.06876975       0.000
   0.08249733  0.04762986  0.06876975       0.000
   0.08624721  0.04979485  0.06876975       0.000
   0.08999709  0.05195984  0.06876975       0.000
   0.09374697  0.05412484  0.06876975       0.000
   0.09749685  0.05628983  0.06876975       0.000
   0.10124672  0.05845482  0.06876975       0.000
   0.10499660  0.06061982  0.06876975       0.000
   0.10874648  0.06278481  0.06876975       0.000
   0.10874648  0.06278481  0.06876975       0.000
   0.10749652  0.06494980  0.06876975       0.000
   0.10624656  0.06711480  0.06876975       0.000
   0.10499660  0.06927979  0.06876975       0.000
   0.10374664  0.07144478  0.06876975       0.000
   0.10249668  0.07360978  0.06876975       0.000
   0.10124672  0.07577477  0.06876975       0.000
   0.09999676  0.07793976  0.06876975       0.000
   0.09874681  0.08010476  0.06876975       0.000
   0.09749685  0.08226975  0.06876975       0.000
   0.09624689  0.08443475  0.06876975       0.000
   0.09499693  0.08659974  0.06876975       0.000
   0.09374697  0.08876473  0.06876975       0.000
   0.09249701  0.09092973  0.06876975       0.000
   0.09124705  0.09309472  0.06876975       0.000
   0.08999709  0.09525971  0.06876975       0.000
   0.08874713  0.09742471  0.06876975       0.000
   0.08749717  0.09958970  0.06876975       0.000
   0.08624721  0.10175469  0.06876975       0.000
   0.08499725  0.10391969  0.06876975       0.000
   0.08374729  0.10608468  0.06876975       0.000
   0.08249733  0.10824967  0.06876975       0.000
   0.08124737  0.11041467  0.06876975       0.000
   0.07999741  0.11257966  0.06876975       0.000
   0.07874745  0.11474465  0.06876975       0.000
   0.07749749  0.11690965  0.06876975       0.000
   0.07624753  0.11907464  0.06876975       0.000
   0.07499757  0.12123964  0.06876975       0.000
   0.07374761  0.12340463  0.06876975       0.000
   0.07249765  0.12556962  0.06876975       0.000
   0.07249765  0.12556962  0.06876975       0.000
   0.06999774  0.12123963  0.06876975       0.000
   0.06749782  0.11690965  0.06876975       0.000
   0.06499790  0.11257966  0.06876975       0.000
   0.06249798  0.10824967  0.06876975       0.000
   0.05999806  0.10391969  0.06876975       0.000
   0.05749814  0.09958970  0.06876975       0.000
   0.05499822  0.09525971  0.06876975       0.000
   0.05249830  0.09092973  0.06876975       0.000
   0.04999838  0.08659974  0.06876975       0.000
   0.04749846  0.08226975  0.06876975       0.000
   0.04499854  0.07793976  0.06876975       0.000
   0.04249863  0.07360978  0.06876975       0.000
   0.03999871  0.06927979  0.06876975       0.000
   0.03749879  0.06494980  0.06876975       0.000
   0.03499887  0.06061982  0.06876975       0.000
   0.03249895  0.05628983  0.06876975       0.000
   0.02999903  0.05195984  0.06876975       0.000
   0.02749911  0.04762986  0.06876975       0.000
   0.02499919  0.04329987  0.06876975       0.000
   0.02249927  0.03896988  0.06876975       0.000
   0.01999935  0.03463989  0.06876975       0.000
   0.01749943  0.03030991  0.06876975       0.000
   0.01499952  0.02597992  0.06876975       0.000
   0.01249959  0.02164993  0.06876975       0.000
   0.00999968  0.01731995  0.06876975       0.000
   0.00749976  0.01298996  0.06876975       0.000
   0.00499984  0.00865998  0.06876975       0.000
   0.00249992  0.00432999  0.06876975       0.000
   0.00000000  0.00000000  0.06876975       0.000
 
 k-points in reciprocal lattice and weights: Automatically generated mesh            
   0.00000000  0.00000000  0.00000000       0.003
   0.12500000  0.00000000  0.00000000       0.019
   0.25000000  0.00000000  0.00000000       0.019
   0.37500000  0.00000000  0.00000000       0.019
   0.50000000  0.00000000  0.00000000       0.009
   0.12500000  0.12500000  0.00000000       0.019
   0.25000000  0.12500000  0.00000000       0.037
   0.37500000  0.12500000  0.00000000       0.037
   0.25000000  0.25000000  0.00000000       0.019
   0.37500000  0.25000000  0.00000000       0.019
   0.00000000  0.00000000  0.20000000       0.006
   0.12500000  0.00000000  0.20000000       0.019
   0.25000000  0.00000000  0.20000000       0.019
   0.37500000  0.00000000  0.20000000       0.019
   0.50000000  0.00000000  0.20000000       0.019
  -0.37500000  0.00000000  0.20000000       0.019
  -0.25000000  0.00000000  0.20000000       0.019
  -0.12500000  0.00000000  0.20000000       0.019
   0.12500000  0.12500000  0.20000000       0.037
   0.25000000  0.12500000  0.20000000       0.037
   0.37500000  0.12500000  0.20000000       0.037
   0.50000000  0.12500000  0.20000000       0.037
  -0.37500000  0.12500000  0.20000000       0.037
   0.25000000  0.25000000  0.20000000       0.037
   0.37500000  0.25000000  0.20000000       0.037
   0.00000000  0.00000000  0.40000000       0.006
   0.12500000  0.00000000  0.40000000       0.019
   0.25000000  0.00000000  0.40000000       0.019
   0.37500000  0.00000000  0.40000000       0.019
   0.50000000  0.00000000  0.40000000       0.019
  -0.37500000  0.00000000  0.40000000       0.019
  -0.25000000  0.00000000  0.40000000       0.019
  -0.12500000  0.00000000  0.40000000       0.019
   0.12500000  0.12500000  0.40000000       0.037
   0.25000000  0.12500000  0.40000000       0.037
   0.37500000  0.12500000  0.40000000       0.037
   0.50000000  0.12500000  0.40000000       0.037
  -0.37500000  0.12500000  0.40000000       0.037
   0.25000000  0.25000000  0.40000000       0.037
   0.37500000  0.25000000  0.40000000       0.037
   0.00000000  0.00000000  0.00000000       0.000
   0.01724138  0.00000000  0.00000000       0.000
   0.03448276  0.00000000  0.00000000       0.000
   0.05172414  0.00000000  0.00000000       0.000
   0.06896552  0.00000000  0.00000000       0.000
   0.08620690  0.00000000  0.00000000       0.000
   0.10344828  0.00000000  0.00000000       0.000
   0.12068966  0.00000000  0.00000000       0.000
   0.13793103  0.00000000  0.00000000       0.000
   0.15517241  0.00000000  0.00000000       0.000
   0.17241379  0.00000000  0.00000000       0.000
   0.18965517  0.00000000  0.00000000       0.000
   0.20689655  0.00000000  0.00000000       0.000
   0.22413793  0.00000000  0.00000000       0.000
   0.24137931  0.00000000  0.00000000       0.000
   0.25862069  0.00000000  0.00000000       0.000
   0.27586207  0.00000000  0.00000000       0.000
   0.29310345  0.00000000  0.00000000       0.000
   0.31034483  0.00000000  0.00000000       0.000
   0.32758621  0.00000000  0.00000000       0.000
   0.34482759  0.00000000  0.00000000       0.000
   0.36206897  0.00000000  0.00000000       0.000
   0.37931034  0.00000000  0.00000000       0.000
   0.39655172  0.00000000  0.00000000       0.000
   0.41379310  0.00000000  0.00000000       0.000
   0.43103448  0.00000000  0.00000000       0.000
   0.44827586  0.00000000  0.00000000       0.000
   0.46551724  0.00000000  0.00000000       0.000
   0.48275862  0.00000000  0.00000000       0.000
   0.50000000  0.00000000  0.00000000       0.000
   0.50000000  0.00000000  0.00000000       0.000
   0.49425287  0.01149425  0.00000000       0.000
   0.48850575  0.02298851  0.00000000       0.000
   0.48275862  0.03448276  0.00000000       0.000
   0.47701149  0.04597701  0.00000000       0.000
   0.47126437  0.05747126  0.00000000       0.000
   0.46551724  0.06896552  0.00000000       0.000
   0.45977011  0.08045977  0.00000000       0.000
   0.45402299  0.09195402  0.00000000       0.000
   0.44827586  0.10344828  0.00000000       0.000
   0.44252874  0.11494253  0.00000000       0.000
   0.43678161  0.12643678  0.00000000       0.000
   0.43103448  0.13793103  0.00000000       0.000
   0.42528736  0.14942529  0.00000000       0.000
   0.41954023  0.16091954  0.00000000       0.000
   0.41379310  0.17241379  0.00000000       0.000
   0.40804598  0.18390805  0.00000000       0.000
   0.40229885  0.19540230  0.00000000       0.000
   0.39655172  0.20689655  0.00000000       0.000
   0.39080460  0.21839080  0.00000000       0.000
   0.38505747  0.22988506  0.00000000       0.000
   0.37931034  0.24137931  0.00000000       0.000
   0.37356322  0.25287356  0.00000000       0.000
   0.36781609  0.26436782  0.00000000       0.000
   0.36206897  0.27586207  0.00000000       0.000
   0.35632184  0.28735632  0.00000000       0.000
   0.35057471  0.29885057  0.00000000       0.000
   0.34482759  0.31034483  0.00000000       0.000
   0.33908046  0.32183908  0.00000000       0.000
   0.33333333  0.33333333  0.00000000       0.000
   0.33333333  0.33333333  0.00000000       0.000
   0.32183908  0.32183908  0.00000000       0.000
   0.31034483  0.31034483  0.00000000       0.000
   0.29885057  0.29885057  0.00000000       0.000
   0.28735632  0.28735632  0.00000000       0.000
   0.27586207  0.27586207  0.00000000       0.000
   0.26436782  0.26436782  0.00000000       0.000
   0.25287356  0.25287356  0.00000000       0.000
   0.24137931  0.24137931  0.00000000       0.000
   0.22988506  0.22988506  0.00000000       0.000
   0.21839080  0.21839080  0.00000000       0.000
   0.20689655  0.20689655  0.00000000       0.000
   0.19540230  0.19540230  0.00000000       0.000
   0.18390805  0.18390805  0.00000000       0.000
   0.17241379  0.17241379  0.00000000       0.000
   0.16091954  0.16091954  0.00000000       0.000
   0.14942529  0.14942529  0.00000000       0.000
   0.13793103  0.13793103  0.00000000       0.000
   0.12643678  0.12643678  0.00000000       0.000
   0.11494253  0.11494253  0.00000000       0.000
   0.10344828  0.10344828  0.00000000       0.000
   0.09195402  0.09195402  0.00000000       0.000
   0.08045977  0.08045977  0.00000000       0.000
   0.06896552  0.06896552  0.00000000       0.000
   0.05747126  0.05747126  0.00000000       0.000
   0.04597701  0.04597701  0.00000000       0.000
   0.03448276  0.03448276  0.00000000       0.000
   0.02298851  0.02298851  0.00000000       0.000
   0.01149425  0.01149425  0.00000000       0.000
   0.00000000  0.00000000  0.00000000       0.000
   0.00000000  0.00000000  0.00000000       0.000
   0.00000000  0.00000000  0.01724138       0.000
   0.00000000  0.00000000  0.03448276       0.000
   0.00000000  0.00000000  0.05172414       0.000
   0.00000000  0.00000000  0.06896552       0.000
   0.00000000  0.00000000  0.08620690       0.000
   0.00000000  0.00000000  0.10344828       0.000
   0.00000000  0.00000000  0.12068966       0.000
   0.00000000  0.00000000  0.13793103       0.000
   0.00000000  0.00000000  0.15517241       0.000
   0.00000000  0.00000000  0.17241379       0.000
   0.00000000  0.00000000  0.18965517       0.000
   0.00000000  0.00000000  0.20689655       0.000
   0.00000000  0.00000000  0.22413793       0.000
   0.00000000  0.00000000  0.24137931       0.000
   0.00000000  0.00000000  0.25862069       0.000
   0.00000000  0.00000000  0.27586207       0.000
   0.00000000  0.00000000  0.29310345       0.000
   0.00000000  0.00000000  0.31034483       0.000
   0.00000000  0.00000000  0.32758621       0.000
   0.00000000  0.00000000  0.34482759       0.000
   0.00000000  0.00000000  0.36206897       0.000
   0.00000000  0.00000000  0.37931034       0.000
   0.00000000  0.00000000  0.39655172       0.000
   0.00000000  0.00000000  0.41379310       0.000
   0.00000000  0.00000000  0.43103448       0.000
   0.00000000  0.00000000  0.44827586       0.000
   0.00000000  0.00000000  0.46551724       0.000
   0.00000000  0.00000000  0.48275862       0.000
   0.00000000  0.00000000  0.50000000       0.000
   0.00000000  0.00000000  0.50000000       0.000
   0.01724138  0.00000000  0.50000000       0.000
   0.03448276  0.00000000  0.50000000       0.000
   0.05172414  0.00000000  0.50000000       0.000
   0.06896552  0.00000000  0.50000000       0.000
   0.08620690  0.00000000  0.50000000       0.000
   0.10344828  0.00000000  0.50000000       0.000
   0.12068966  0.00000000  0.50000000       0.000
   0.13793103  0.00000000  0.50000000       0.000
   0.15517241  0.00000000  0.50000000       0.000
   0.17241379  0.00000000  0.50000000       0.000
   0.18965517  0.00000000  0.50000000       0.000
   0.20689655  0.00000000  0.50000000       0.000
   0.22413793  0.00000000  0.50000000       0.000
   0.24137931  0.00000000  0.50000000       0.000
   0.25862069  0.00000000  0.50000000       0.000
   0.27586207  0.00000000  0.50000000       0.000
   0.29310345  0.00000000  0.50000000       0.000
   0.31034483  0.00000000  0.50000000       0.000
   0.32758621  0.00000000  0.50000000       0.000
   0.34482759  0.00000000  0.50000000       0.000
   0.36206897  0.00000000  0.50000000       0.000
   0.37931034  0.00000000  0.50000000       0.000
   0.39655172  0.00000000  0.50000000       0.000
   0.41379310  0.00000000  0.50000000       0.000
   0.43103448  0.00000000  0.50000000       0.000
   0.44827586  0.00000000  0.50000000       0.000
   0.46551724  0.00000000  0.50000000       0.000
   0.48275862  0.00000000  0.50000000       0.000
   0.50000000  0.00000000  0.50000000       0.000
   0.50000000  0.00000000  0.50000000       0.000
   0.49425287  0.01149425  0.50000000       0.000
   0.48850575  0.02298851  0.50000000       0.000
   0.48275862  0.03448276  0.50000000       0.000
   0.47701149  0.04597701  0.50000000       0.000
   0.47126437  0.05747126  0.50000000       0.000
   0.46551724  0.06896552  0.50000000       0.000
   0.45977011  0.08045977  0.50000000       0.000
   0.45402299  0.09195402  0.50000000       0.000
   0.44827586  0.10344828  0.50000000       0.000
   0.44252874  0.11494253  0.50000000       0.000
   0.43678161  0.12643678  0.50000000       0.000
   0.43103448  0.13793103  0.50000000       0.000
   0.42528736  0.14942529  0.50000000       0.000
   0.41954023  0.16091954  0.50000000       0.000
   0.41379310  0.17241379  0.50000000       0.000
   0.40804598  0.18390805  0.50000000       0.000
   0.40229885  0.19540230  0.50000000       0.000
   0.39655172  0.20689655  0.50000000       0.000
   0.39080460  0.21839080  0.50000000       0.000
   0.38505747  0.22988506  0.50000000       0.000
   0.37931034  0.24137931  0.50000000       0.000
   0.37356322  0.25287356  0.50000000       0.000
   0.36781609  0.26436782  0.50000000       0.000
   0.36206897  0.27586207  0.50000000       0.000
   0.35632184  0.28735632  0.50000000       0.000
   0.35057471  0.29885057  0.50000000       0.000
   0.34482759  0.31034483  0.50000000       0.000
   0.33908046  0.32183908  0.50000000       0.000
   0.33333333  0.33333333  0.50000000       0.000
   0.33333333  0.33333333  0.50000000       0.000
   0.32183908  0.32183908  0.50000000       0.000
   0.31034483  0.31034483  0.50000000       0.000
   0.29885057  0.29885057  0.50000000       0.000
   0.28735632  0.28735632  0.50000000       0.000
   0.27586207  0.27586207  0.50000000       0.000
   0.26436782  0.26436782  0.50000000       0.000
   0.25287356  0.25287356  0.50000000       0.000
   0.24137931  0.24137931  0.50000000       0.000
   0.22988506  0.22988506  0.50000000       0.000
   0.21839080  0.21839080  0.50000000       0.000
   0.20689655  0.20689655  0.50000000       0.000
   0.19540230  0.19540230  0.50000000       0.000
   0.18390805  0.18390805  0.50000000       0.000
   0.17241379  0.17241379  0.50000000       0.000
   0.16091954  0.16091954  0.50000000       0.000
   0.14942529  0.14942529  0.50000000       0.000
   0.13793103  0.13793103  0.50000000       0.000
   0.12643678  0.12643678  0.50000000       0.000
   0.11494253  0.11494253  0.50000000       0.000
   0.10344828  0.10344828  0.50000000       0.000
   0.09195402  0.09195402  0.50000000       0.000
   0.08045977  0.08045977  0.50000000       0.000
   0.06896552  0.06896552  0.50000000       0.000
   0.05747126  0.05747126  0.50000000       0.000
   0.04597701  0.04597701  0.50000000       0.000
   0.03448276  0.03448276  0.50000000       0.000
   0.02298851  0.02298851  0.50000000       0.000
   0.01149425  0.01149425  0.50000000       0.000
   0.00000000  0.00000000  0.50000000       0.000
 
 position of ions in fractional coordinates (direct lattice) 
   0.00000000  0.00000000  0.00000000
   0.33333334  0.66666669  0.63203644
   0.66666663  0.33333331  0.36796356
   0.33333334  0.66666669  0.22537666
   0.66666663  0.33333331  0.77462337
 
 position of ions in cartesian coordinates  (Angst):
   0.00000000  0.00000000  0.00000000
  -0.00000000  2.65456996  4.59530835
   2.29892482  1.32728486  2.67533000
  -0.00000000  2.65456996  1.63863216
   2.29892482  1.32728486  5.63200640
 


--------------------------------------------------------------------------------------------------------


 k-point  1 :   0.0000 0.0000 0.0000  plane waves:    2429
 k-point  2 :   0.1250 0.0000 0.0000  plane waves:    2413
 k-point  3 :   0.2500 0.0000 0.0000  plane waves:    2429
 k-point  4 :   0.3750 0.0000 0.0000  plane waves:    2427
 k-point  5 :   0.5000 0.0000 0.0000  plane waves:    2396
 k-point  6 :   0.1250 0.1250 0.0000  plane waves:    2429
 k-point  7 :   0.2500 0.1250 0.0000  plane waves:    2413
 k-point  8 :   0.3750 0.1250 0.0000  plane waves:    2412
 k-point  9 :   0.2500 0.2500 0.0000  plane waves:    2415
 k-point 10 :   0.3750 0.2500 0.0000  plane waves:    2424
 k-point 11 :   0.0000 0.0000 0.2000  plane waves:    2430
 k-point 12 :   0.1250 0.0000 0.2000  plane waves:    2428
 k-point 13 :   0.2500 0.0000 0.2000  plane waves:    2430
 k-point 14 :   0.3750 0.0000 0.2000  plane waves:    2416
 k-point 15 :   0.5000 0.0000 0.2000  plane waves:    2406
 k-point 16 :  -0.3750 0.0000 0.2000  plane waves:    2416
 k-point 17 :  -0.2500 0.0000 0.2000  plane waves:    2430
 k-point 18 :  -0.1250 0.0000 0.2000  plane waves:    2428
 k-point 19 :   0.1250 0.1250 0.2000  plane waves:    2424
 k-point 20 :   0.2500 0.1250 0.2000  plane waves:    2420
 k-point 21 :   0.3750 0.1250 0.2000  plane waves:    2405
 k-point 22 :   0.5000 0.1250 0.2000  plane waves:    2405
 k-point 23 :  -0.3750 0.1250 0.2000  plane waves:    2420
 k-point 24 :   0.2500 0.2500 0.2000  plane waves:    2411
 k-point 25 :   0.3750 0.2500 0.2000  plane waves:    2410
 k-point 26 :   0.0000 0.0000 0.4000  plane waves:    2424
 k-point 27 :   0.1250 0.0000 0.4000  plane waves:    2443
 k-point 28 :   0.2500 0.0000 0.4000  plane waves:    2434
 k-point 29 :   0.3750 0.0000 0.4000  plane waves:    2426
 k-point 30 :   0.5000 0.0000 0.4000  plane waves:    2400
 k-point 31 :  -0.3750 0.0000 0.4000  plane waves:    2426
 k-point 32 :  -0.2500 0.0000 0.4000  plane waves:    2434
 k-point 33 :  -0.1250 0.0000 0.4000  plane waves:    2443
 k-point 34 :   0.1250 0.1250 0.4000  plane waves:    2430
 k-point 35 :   0.2500 0.1250 0.4000  plane waves:    2426
 k-point 36 :   0.3750 0.1250 0.4000  plane waves:    2408
 k-point 37 :   0.5000 0.1250 0.4000  plane waves:    2408
 k-point 38 :  -0.3750 0.1250 0.4000  plane waves:    2426
 k-point 39 :   0.2500 0.2500 0.4000  plane waves:    2408
 k-point 40 :   0.3750 0.2500 0.4000  plane waves:    2393
 k-point 41 :   0.0000 0.0000 0.0000  plane waves:    2429
 k-point 42 :   0.0172 0.0000 0.0000  plane waves:    2429
 k-point 43 :   0.0345 0.0000 0.0000  plane waves:    2417
 k-point 44 :   0.0517 0.0000 0.0000  plane waves:    2401
 k-point 45 :   0.0690 0.0000 0.0000  plane waves:    2407
 k-point 46 :   0.0862 0.0000 0.0000  plane waves:    2407
 k-point 47 :   0.1034 0.0000 0.0000  plane waves:    2407
 k-point 48 :   0.1207 0.0000 0.0000  plane waves:    2413
 k-point 49 :   0.1379 0.0000 0.0000  plane waves:    2417
 k-point 50 :   0.1552 0.0000 0.0000  plane waves:    2421
 k-point 51 :   0.1724 0.0000 0.0000  plane waves:    2429
 k-point 52 :   0.1897 0.0000 0.0000  plane waves:    2435
 k-point 53 :   0.2069 0.0000 0.0000  plane waves:    2435
 k-point 54 :   0.2241 0.0000 0.0000  plane waves:    2425
 k-point 55 :   0.2414 0.0000 0.0000  plane waves:    2429
 k-point 56 :   0.2586 0.0000 0.0000  plane waves:    2427
 k-point 57 :   0.2759 0.0000 0.0000  plane waves:    2431
 k-point 58 :   0.2931 0.0000 0.0000  plane waves:    2429
 k-point 59 :   0.3103 0.0000 0.0000  plane waves:    2429
 k-point 60 :   0.3276 0.0000 0.0000  plane waves:    2421
 k-point 61 :   0.3448 0.0000 0.0000  plane waves:    2423
 k-point 62 :   0.3621 0.0000 0.0000  plane waves:    2419
 k-point 63 :   0.3793 0.0000 0.0000  plane waves:    2427
 k-point 64 :   0.3966 0.0000 0.0000  plane waves:    2423
 k-point 65 :   0.4138 0.0000 0.0000  plane waves:    2415
 k-point 66 :   0.4310 0.0000 0.0000  plane waves:    2405
 k-point 67 :   0.4483 0.0000 0.0000  plane waves:    2413
 k-point 68 :   0.4655 0.0000 0.0000  plane waves:    2403
 k-point 69 :   0.4828 0.0000 0.0000  plane waves:    2405
 k-point 70 :   0.5000 0.0000 0.0000  plane waves:    2396
 k-point 71 :   0.5000 0.0000 0.0000  plane waves:    2396
 k-point 72 :   0.4943 0.0115 0.0000  plane waves:    2400
 k-point 73 :   0.4885 0.0230 0.0000  plane waves:    2402
 k-point 74 :   0.4828 0.0345 0.0000  plane waves:    2390
 k-point 75 :   0.4770 0.0460 0.0000  plane waves:    2398
 k-point 76 :   0.4713 0.0575 0.0000  plane waves:    2394
 k-point 77 :   0.4655 0.0690 0.0000  plane waves:    2400
 k-point 78 :   0.4598 0.0805 0.0000  plane waves:    2400
 k-point 79 :   0.4540 0.0920 0.0000  plane waves:    2404
 k-point 80 :   0.4483 0.1034 0.0000  plane waves:    2408
 k-point 81 :   0.4425 0.1149 0.0000  plane waves:    2404
 k-point 82 :   0.4368 0.1264 0.0000  plane waves:    2410
 k-point 83 :   0.4310 0.1379 0.0000  plane waves:    2410
 k-point 84 :   0.4253 0.1494 0.0000  plane waves:    2410
 k-point 85 :   0.4195 0.1609 0.0000  plane waves:    2410
 k-point 86 :   0.4138 0.1724 0.0000  plane waves:    2406
 k-point 87 :   0.4080 0.1839 0.0000  plane waves:    2406
 k-point 88 :   0.4023 0.1954 0.0000  plane waves:    2402
 k-point 89 :   0.3966 0.2069 0.0000  plane waves:    2410
 k-point 90 :   0.3908 0.2184 0.0000  plane waves:    2420
 k-point 91 :   0.3851 0.2299 0.0000  plane waves:    2428
 k-point 92 :   0.3793 0.2414 0.0000  plane waves:    2424
 k-point 93 :   0.3736 0.2529 0.0000  plane waves:    2424
 k-point 94 :   0.3678 0.2644 0.0000  plane waves:    2430
 k-point 95 :   0.3621 0.2759 0.0000  plane waves:    2430
 k-point 96 :   0.3563 0.2874 0.0000  plane waves:    2426
 k-point 97 :   0.3506 0.2989 0.0000  plane waves:    2426
 k-point 98 :   0.3448 0.3103 0.0000  plane waves:    2422
 k-point 99 :   0.3391 0.3218 0.0000  plane waves:    2420
 k-point ** :   0.3333 0.3333 0.0000  plane waves:    2424
 k-point ** :   0.3333 0.3333 0.0000  plane waves:    2424
 k-point ** :   0.3218 0.3218 0.0000  plane waves:    2418
 k-point ** :   0.3103 0.3103 0.0000  plane waves:    2422
 k-point ** :   0.2989 0.2989 0.0000  plane waves:    2420
 k-point ** :   0.2874 0.2874 0.0000  plane waves:    2414
 k-point ** :   0.2759 0.2759 0.0000  plane waves:    2402
 k-point ** :   0.2644 0.2644 0.0000  plane waves:    2400
 k-point ** :   0.2529 0.2529 0.0000  plane waves:    2408
 k-point ** :   0.2414 0.2414 0.0000  plane waves:    2411
 k-point ** :   0.2299 0.2299 0.0000  plane waves:    2417
 k-point ** :   0.2184 0.2184 0.0000  plane waves:    2421
 k-point ** :   0.2069 0.2069 0.0000  plane waves:    2405
 k-point ** :   0.1954 0.1954 0.0000  plane waves:    2403
 k-point ** :   0.1839 0.1839 0.0000  plane waves:    2415
 k-point ** :   0.1724 0.1724 0.0000  plane waves:    2415
 k-point ** :   0.1609 0.1609 0.0000  plane waves:    2415
 k-point ** :   0.1494 0.1494 0.0000  plane waves:    2427
 k-point ** :   0.1379 0.1379 0.0000  plane waves:    2425
 k-point ** :   0.1264 0.1264 0.0000  plane waves:    2429
 k-point ** :   0.1149 0.1149 0.0000  plane waves:    2429
 k-point ** :   0.1034 0.1034 0.0000  plane waves:    2425
 k-point ** :   0.0920 0.0920 0.0000  plane waves:    2417
 k-point ** :   0.0805 0.0805 0.0000  plane waves:    2417
 k-point ** :   0.0690 0.0690 0.0000  plane waves:    2409
 k-point ** :   0.0575 0.0575 0.0000  plane waves:    2405
 k-point ** :   0.0460 0.0460 0.0000  plane waves:    2403
 k-point ** :   0.0345 0.0345 0.0000  plane waves:    2401
 k-point ** :   0.0230 0.0230 0.0000  plane waves:    2415
 k-point ** :   0.0115 0.0115 0.0000  plane waves:    2429
 k-point ** :   0.0000 0.0000 0.0000  plane waves:    2429
 k-point ** :   0.0000 0.0000 0.0000  plane waves:    2429
 k-point ** :   0.0000 0.0000 0.0172  plane waves:    2429
 k-point ** :   0.0000 0.0000 0.0345  plane waves:    2423
 k-point ** :   0.0000 0.0000 0.0517  plane waves:    2423
 k-point ** :   0.0000 0.0000 0.0690  plane waves:    2423
 k-point ** :   0.0000 0.0000 0.0862  plane waves:    2423
 k-point ** :   0.0000 0.0000 0.1034  plane waves:    2411
 k-point ** :   0.0000 0.0000 0.1207  plane waves:    2405
 k-point ** :   0.0000 0.0000 0.1379  plane waves:    2417
 k-point ** :   0.0000 0.0000 0.1552  plane waves:    2418
 k-point ** :   0.0000 0.0000 0.1724  plane waves:    2430
 k-point ** :   0.0000 0.0000 0.1897  plane waves:    2430
 k-point ** :   0.0000 0.0000 0.2069  plane waves:    2430
 k-point ** :   0.0000 0.0000 0.2241  plane waves:    2442
 k-point ** :   0.0000 0.0000 0.2414  plane waves:    2442
 k-point ** :   0.0000 0.0000 0.2586  plane waves:    2430
 k-point ** :   0.0000 0.0000 0.2759  plane waves:    2430
 k-point ** :   0.0000 0.0000 0.2931  plane waves:    2430
 k-point ** :   0.0000 0.0000 0.3103  plane waves:    2430
 k-point ** :   0.0000 0.0000 0.3276  plane waves:    2430
 k-point ** :   0.0000 0.0000 0.3448  plane waves:    2424
 k-point ** :   0.0000 0.0000 0.3621  plane waves:    2424
 k-point ** :   0.0000 0.0000 0.3793  plane waves:    2424
 k-point ** :   0.0000 0.0000 0.3966  plane waves:    2424
 k-point ** :   0.0000 0.0000 0.4138  plane waves:    2412
 k-point ** :   0.0000 0.0000 0.4310  plane waves:    2406
 k-point ** :   0.0000 0.0000 0.4483  plane waves:    2412
 k-point ** :   0.0000 0.0000 0.4655  plane waves:    2412
 k-point ** :   0.0000 0.0000 0.4828  plane waves:    2418
 k-point ** :   0.0000 0.0000 0.5000  plane waves:    2424
 k-point ** :   0.0000 0.0000 0.5000  plane waves:    2424
 k-point ** :   0.0172 0.0000 0.5000  plane waves:    2416
 k-point ** :   0.0345 0.0000 0.5000  plane waves:    2410
 k-point ** :   0.0517 0.0000 0.5000  plane waves:    2414
 k-point ** :   0.0690 0.0000 0.5000  plane waves:    2418
 k-point ** :   0.0862 0.0000 0.5000  plane waves:    2430
 k-point ** :   0.1034 0.0000 0.5000  plane waves:    2434
 k-point ** :   0.1207 0.0000 0.5000  plane waves:    2440
 k-point ** :   0.1379 0.0000 0.5000  plane waves:    2436
 k-point ** :   0.1552 0.0000 0.5000  plane waves:    2428
 k-point ** :   0.1724 0.0000 0.5000  plane waves:    2428
 k-point ** :   0.1897 0.0000 0.5000  plane waves:    2432
 k-point ** :   0.2069 0.0000 0.5000  plane waves:    2434
 k-point ** :   0.2241 0.0000 0.5000  plane waves:    2438
 k-point ** :   0.2414 0.0000 0.5000  plane waves:    2442
 k-point ** :   0.2586 0.0000 0.5000  plane waves:    2444
 k-point ** :   0.2759 0.0000 0.5000  plane waves:    2436
 k-point ** :   0.2931 0.0000 0.5000  plane waves:    2428
 k-point ** :   0.3103 0.0000 0.5000  plane waves:    2428
 k-point ** :   0.3276 0.0000 0.5000  plane waves:    2428
 k-point ** :   0.3448 0.0000 0.5000  plane waves:    2428
 k-point ** :   0.3621 0.0000 0.5000  plane waves:    2438
 k-point ** :   0.3793 0.0000 0.5000  plane waves:    2442
 k-point ** :   0.3966 0.0000 0.5000  plane waves:    2422
 k-point ** :   0.4138 0.0000 0.5000  plane waves:    2426
 k-point ** :   0.4310 0.0000 0.5000  plane waves:    2426
 k-point ** :   0.4483 0.0000 0.5000  plane waves:    2416
 k-point ** :   0.4655 0.0000 0.5000  plane waves:    2412
 k-point ** :   0.4828 0.0000 0.5000  plane waves:    2402
 k-point ** :   0.5000 0.0000 0.5000  plane waves:    2392
 k-point ** :   0.5000 0.0000 0.5000  plane waves:    2392
 k-point ** :   0.4943 0.0115 0.5000  plane waves:    2392
 k-point ** :   0.4885 0.0230 0.5000  plane waves:    2396
 k-point ** :   0.4828 0.0345 0.5000  plane waves:    2396
 k-point ** :   0.4770 0.0460 0.5000  plane waves:    2400
 k-point ** :   0.4713 0.0575 0.5000  plane waves:    2412
 k-point ** :   0.4655 0.0690 0.5000  plane waves:    2414
 k-point ** :   0.4598 0.0805 0.5000  plane waves:    2406
 k-point ** :   0.4540 0.0920 0.5000  plane waves:    2410
 k-point ** :   0.4483 0.1034 0.5000  plane waves:    2406
 k-point ** :   0.4425 0.1149 0.5000  plane waves:    2402
 k-point ** :   0.4368 0.1264 0.5000  plane waves:    2398
 k-point ** :   0.4310 0.1379 0.5000  plane waves:    2398
 k-point ** :   0.4253 0.1494 0.5000  plane waves:    2398
 k-point ** :   0.4195 0.1609 0.5000  plane waves:    2406
 k-point ** :   0.4138 0.1724 0.5000  plane waves:    2400
 k-point ** :   0.4080 0.1839 0.5000  plane waves:    2396
 k-point ** :   0.4023 0.1954 0.5000  plane waves:    2396
 k-point ** :   0.3966 0.2069 0.5000  plane waves:    2396
 k-point ** :   0.3908 0.2184 0.5000  plane waves:    2396
 k-point ** :   0.3851 0.2299 0.5000  plane waves:    2406
 k-point ** :   0.3793 0.2414 0.5000  plane waves:    2402
 k-point ** :   0.3736 0.2529 0.5000  plane waves:    2394
 k-point ** :   0.3678 0.2644 0.5000  plane waves:    2394
 k-point ** :   0.3621 0.2759 0.5000  plane waves:    2398
 k-point ** :   0.3563 0.2874 0.5000  plane waves:    2390
 k-point ** :   0.3506 0.2989 0.5000  plane waves:    2394
 k-point ** :   0.3448 0.3103 0.5000  plane waves:    2386
 k-point ** :   0.3391 0.3218 0.5000  plane waves:    2394
 k-point ** :   0.3333 0.3333 0.5000  plane waves:    2388
 k-point ** :   0.3333 0.3333 0.5000  plane waves:    2388
 k-point ** :   0.3218 0.3218 0.5000  plane waves:    2392
 k-point ** :   0.3103 0.3103 0.5000  plane waves:    2402
 k-point ** :   0.2989 0.2989 0.5000  plane waves:    2402
 k-point ** :   0.2874 0.2874 0.5000  plane waves:    2398
 k-point ** :   0.2759 0.2759 0.5000  plane waves:    2400
 k-point ** :   0.2644 0.2644 0.5000  plane waves:    2408
 k-point ** :   0.2529 0.2529 0.5000  plane waves:    2408
 k-point ** :   0.2414 0.2414 0.5000  plane waves:    2410
 k-point ** :   0.2299 0.2299 0.5000  plane waves:    2410
 k-point ** :   0.2184 0.2184 0.5000  plane waves:    2418
 k-point ** :   0.2069 0.2069 0.5000  plane waves:    2422
 k-point ** :   0.1954 0.1954 0.5000  plane waves:    2422
 k-point ** :   0.1839 0.1839 0.5000  plane waves:    2418
 k-point ** :   0.1724 0.1724 0.5000  plane waves:    2426
 k-point ** :   0.1609 0.1609 0.5000  plane waves:    2426
 k-point ** :   0.1494 0.1494 0.5000  plane waves:    2434
 k-point ** :   0.1379 0.1379 0.5000  plane waves:    2434
 k-point ** :   0.1264 0.1264 0.5000  plane waves:    2440
 k-point ** :   0.1149 0.1149 0.5000  plane waves:    2452
 k-point ** :   0.1034 0.1034 0.5000  plane waves:    2452
 k-point ** :   0.0920 0.0920 0.5000  plane waves:    2450
 k-point ** :   0.0805 0.0805 0.5000  plane waves:    2444
 k-point ** :   0.0690 0.0690 0.5000  plane waves:    2436
 k-point ** :   0.0575 0.0575 0.5000  plane waves:    2440
 k-point ** :   0.0460 0.0460 0.5000  plane waves:    2436
 k-point ** :   0.0345 0.0345 0.5000  plane waves:    2424
 k-point ** :   0.0230 0.0230 0.5000  plane waves:    2412
 k-point ** :   0.0115 0.0115 0.5000  plane waves:    2416
 k-point ** :   0.0000 0.0000 0.5000  plane waves:    2424

 maximum and minimum number of plane-waves per node :       259      220

 maximum number of plane-waves:      2452
 maximum index in each direction: 
   IXMAX=    7   IYMAX=    7   IZMAX=   11
   IXMIN=   -7   IYMIN=   -7   IZMIN=  -12


 parallel 3D FFT for wavefunctions:
    minimum data exchange during FFTs selected (reduces bandwidth)
 parallel 3D FFT for charge:
    minimum data exchange during FFTs selected (reduces bandwidth)


 total amount of memory used by VASP MPI-rank0    46026. kBytes
=======================================================================

   base      :      30000. kBytes
   nonl-proj :      13332. kBytes
   fftplans  :        208. kBytes
   grid      :        302. kBytes
   one-center:          8. kBytes
   wavefun   :       2176. kBytes
 
     INWAV:  cpu time    0.0000: real time    0.0000
 Broyden mixing: mesh for mixing (old mesh)
   NGX = 15   NGY = 15   NGZ = 23
  (NGX  = 48   NGY  = 48   NGZ  = 72)
  gives a total of   5175 points

 initial charge density was supplied:
 charge density of overlapping atoms calculated
 number of electron      16.0000000 magnetization 
 keeping initial charge density in first step


--------------------------------------------------------------------------------------------------------


 Maximum index for augmentation-charges          371 (set IRDMAX)


--------------------------------------------------------------------------------------------------------


 First call to EWALD:  gamma=   0.347
 Maximum number of real-space cells 3x 3x 2
 Maximum number of reciprocal cells 3x 3x 4

    FEWALD:  cpu time    0.0016: real time    0.0058


--------------------------------------- Iteration      1(   1)  ---------------------------------------


    POTLOK:  cpu time    0.0151: real time    0.0543
    SETDIJ:  cpu time    0.0036: real time    0.0109
     EDDAV:  cpu time    1.2504: real time    1.3569
 BZINTS: Fermi energy:  8.815016; 16.000000 electrons
         Band energy:  46.841761;  BLOECHL correction: -0.297840
       DOS:  cpu time    0.0109: real time    0.0193
    --------------------------------------------
      LOOP:  cpu time    1.2801: real time    1.4414

 eigenvalue-minimisations  :  8000
 total energy-change (2. order) : 0.3513878E+02  (-0.4343505E+03)
 number of electron      16.0000000 magnetization 
 augmentation part       16.0000000 magnetization 

 Free energy of the ion-electron system (eV)
  ---------------------------------------------------
  alpha Z        PSCENC =         5.24900307
  Ewald energy   TEWEN  =      -387.53429618
  -Hartree energ DENC   =       -23.13503979
  -exchange      EXHF   =         0.00000000
  -V(xc)+E(xc)   XCENC  =      -238.79456755
  PAW double counting   =       523.27902600     -259.77882247
  entropy T*S    EENTRO =         0.00000000
  eigenvalues    EBANDS =        46.84176089
  atomic energy  EATOM  =       369.01171218
  Solvation  Ediel_sol  =         0.00000000
  ---------------------------------------------------
  free energy    TOTEN  =        35.13877614 eV

  energy without entropy =       35.13877614  energy(sigma->0) =       35.13877614


--------------------------------------------------------------------------------------------------------




--------------------------------------- Iteration      1(   2)  ---------------------------------------


     EDDAV:  cpu time    1.3804: real time    1.5278
 BZINTS: Fermi energy:  4.724562; 16.000000 electrons
         Band energy:  -0.797574;  BLOECHL correction: -0.000000
       DOS:  cpu time    0.0079: real time    0.0078
    --------------------------------------------
      LOOP:  cpu time    1.3883: real time    1.5356

 eigenvalue-minimisations  : 10216
 total energy-change (2. order) :-0.4763933E+02  (-0.4281866E+02)
 number of electron      16.0000000 magnetization 
 augmentation part       16.0000000 magnetization 

 Free energy of the ion-electron system (eV)
  ---------------------------------------------------
  alpha Z        PSCENC =         5.24900307
  Ewald energy   TEWEN  =      -387.53429618
  -Hartree energ DENC   =       -23.13503979
  -exchange      EXHF   =         0.00000000
  -V(xc)+E(xc)   XCENC  =      -238.79456755
  PAW double counting   =       523.27902600     -259.77882247
  entropy T*S    EENTRO =         0.00000000
  eigenvalues    EBANDS =        -0.79757408
  atomic energy  EATOM  =       369.01171218
  Solvation  Ediel_sol  =         0.00000000
  ---------------------------------------------------
  free energy    TOTEN  =       -12.50055883 eV

  energy without entropy =      -12.50055883  energy(sigma->0) =      -12.50055883


--------------------------------------------------------------------------------------------------------




--------------------------------------- Iteration      1(   3)  ---------------------------------------


     EDDAV:  cpu time    1.4370: real time    1.4389
 BZINTS: Fermi energy:  4.648138; 16.000000 electrons
         Band energy:  -3.501831;  BLOECHL correction: -0.000000
       DOS:  cpu time    0.0084: real time    0.0084
    --------------------------------------------
      LOOP:  cpu time    1.4462: real time    1.4472

 eigenvalue-minimisations  : 10920
 total energy-change (2. order) :-0.2704256E+01  (-0.2675679E+01)
 number of electron      16.0000000 magnetization 
 augmentation part       16.0000000 magnetization 

 Free energy of the ion-electron system (eV)
  ---------------------------------------------------
  alpha Z        PSCENC =         5.24900307
  Ewald energy   TEWEN  =      -387.53429618
  -Hartree energ DENC   =       -23.13503979
  -exchange      EXHF   =         0.00000000
  -V(xc)+E(xc)   XCENC  =      -238.79456755
  PAW double counting   =       523.27902600     -259.77882247
  entropy T*S    EENTRO =         0.00000000
  eigenvalues    EBANDS =        -3.50183051
  atomic energy  EATOM  =       369.01171218
  Solvation  Ediel_sol  =         0.00000000
  ---------------------------------------------------
  free energy    TOTEN  =       -15.20481526 eV

  energy without entropy =      -15.20481526  energy(sigma->0) =      -15.20481526


--------------------------------------------------------------------------------------------------------




--------------------------------------- Iteration      1(   4)  ---------------------------------------


     EDDAV:  cpu time    1.2896: real time    1.2901
 BZINTS: Fermi energy:  4.647614; 16.000000 electrons
         Band energy:  -3.533503;  BLOECHL correction: -0.000000
       DOS:  cpu time    0.0073: real time    0.0073
    --------------------------------------------
      LOOP:  cpu time    1.2961: real time    1.2975

 eigenvalue-minimisations  :  9232
 total energy-change (2. order) :-0.3167231E-01  (-0.3166949E-01)
 number of electron      16.0000000 magnetization 
 augmentation part       16.0000000 magnetization 

 Free energy of the ion-electron system (eV)
  ---------------------------------------------------
  alpha Z        PSCENC =         5.24900307
  Ewald energy   TEWEN  =      -387.53429618
  -Hartree energ DENC   =       -23.13503979
  -exchange      EXHF   =         0.00000000
  -V(xc)+E(xc)   XCENC  =      -238.79456755
  PAW double counting   =       523.27902600     -259.77882247
  entropy T*S    EENTRO =         0.00000000
  eigenvalues    EBANDS =        -3.53350282
  atomic energy  EATOM  =       369.01171218
  Solvation  Ediel_sol  =         0.00000000
  ---------------------------------------------------
  free energy    TOTEN  =       -15.23648757 eV

  energy without entropy =      -15.23648757  energy(sigma->0) =      -15.23648757


--------------------------------------------------------------------------------------------------------




--------------------------------------- Iteration      1(   5)  ---------------------------------------


     EDDAV:  cpu time    1.4552: real time    1.4567
 BZINTS: Fermi energy:  4.647594; 16.000000 electrons
         Band energy:  -3.534073;  BLOECHL correction: -0.000000
       DOS:  cpu time    0.0078: real time    0.0079
    CHARGE:  cpu time    0.0184: real time    0.0375
    MIXING:  cpu time    0.0064: real time    0.0210
    --------------------------------------------
      LOOP:  cpu time    1.4879: real time    1.5230

 eigenvalue-minimisations  : 10760
 total energy-change (2. order) :-0.5701396E-03  (-0.5701409E-03)
 number of electron      15.9999995 magnetization 
 augmentation part       -1.6448606 magnetization 

 Broyden mixing:
  rms(total) = 0.43560E+00    rms(broyden)= 0.43560E+00
  rms(prec ) = 0.69760E+00
  weight for this iteration     100.00

 Free energy of the ion-electron system (eV)
  ---------------------------------------------------
  alpha Z        PSCENC =         5.24900307
  Ewald energy   TEWEN  =      -387.53429618
  -Hartree energ DENC   =       -23.13503979
  -exchange      EXHF   =         0.00000000
  -V(xc)+E(xc)   XCENC  =      -238.79456755
  PAW double counting   =       523.27902600     -259.77882247
  entropy T*S    EENTRO =         0.00000000
  eigenvalues    EBANDS =        -3.53407296
  atomic energy  EATOM  =       369.01171218
  Solvation  Ediel_sol  =         0.00000000
  ---------------------------------------------------
  free energy    TOTEN  =       -15.23705771 eV

  energy without entropy =      -15.23705771  energy(sigma->0) =      -15.23705771


--------------------------------------------------------------------------------------------------------




--------------------------------------- Iteration      1(   6)  ---------------------------------------


    POTLOK:  cpu time    0.0054: real time    0.0057
    SETDIJ:  cpu time    0.0020: real time    0.0020
     EDDAV:  cpu time    1.3590: real time    1.4930
 BZINTS: Fermi energy:  4.592961; 16.000000 electrons
         Band energy:   0.091658;  BLOECHL correction: -0.000000
       DOS:  cpu time    0.0062: real time    0.0062
    CHARGE:  cpu time    0.0053: real time    0.0053
    MIXING:  cpu time    0.0029: real time    0.0053
    --------------------------------------------
      LOOP:  cpu time    1.3817: real time    1.5176

 eigenvalue-minimisations  :  9584
 total energy-change (2. order) : 0.4912535E+00  (-0.5155435E-01)
 number of electron      15.9999995 magnetization 
 augmentation part       -1.5836860 magnetization 

 Broyden mixing:
  rms(total) = 0.25939E+00    rms(broyden)= 0.25939E+00
  rms(prec ) = 0.36860E+00
  weight for this iteration     100.00

 eigenvalues of (default mixing * dielectric matrix)
  average eigenvalue GAMMA=   2.2327
  2.2327

 Free energy of the ion-electron system (eV)
  ---------------------------------------------------
  alpha Z        PSCENC =         5.24900307
  Ewald energy   TEWEN  =      -387.53429618
  -Hartree energ DENC   =       -26.59326809
  -exchange      EXHF   =         0.00000000
  -V(xc)+E(xc)   XCENC  =      -238.29711157
  PAW double counting   =       653.32243683     -389.99593865
  entropy T*S    EENTRO =         0.00000000
  eigenvalues    EBANDS =         0.09165822
  atomic energy  EATOM  =       369.01171218
  Solvation  Ediel_sol  =         0.00000000
  ---------------------------------------------------
  free energy    TOTEN  =       -14.74580420 eV

  energy without entropy =      -14.74580420  energy(sigma->0) =      -14.74580420


--------------------------------------------------------------------------------------------------------




--------------------------------------- Iteration      1(   7)  ---------------------------------------


    POTLOK:  cpu time    0.0055: real time    0.0059
    SETDIJ:  cpu time    0.0018: real time    0.0018
     EDDAV:  cpu time    1.4203: real time    1.4203
 BZINTS: Fermi energy:  4.538825; 16.000000 electrons
         Band energy:   2.825776;  BLOECHL correction: -0.000000
       DOS:  cpu time    0.0060: real time    0.0060
    CHARGE:  cpu time    0.0058: real time    0.0058
    MIXING:  cpu time    0.0005: real time    0.0005
    --------------------------------------------
      LOOP:  cpu time    1.4391: real time    1.4402

 eigenvalue-minimisations  : 10544
 total energy-change (2. order) : 0.1001495E+00  (-0.3794749E-01)
 number of electron      15.9999995 magnetization 
 augmentation part       -1.5301113 magnetization 

 Broyden mixing:
  rms(total) = 0.10413E+00    rms(broyden)= 0.10413E+00
  rms(prec ) = 0.12021E+00
  weight for this iteration     100.00

 eigenvalues of (default mixing * dielectric matrix)
  average eigenvalue GAMMA=   2.6373
  1.6303  3.6442

 Free energy of the ion-electron system (eV)
  ---------------------------------------------------
  alpha Z        PSCENC =         5.24900307
  Ewald energy   TEWEN  =      -387.53429618
  -Hartree energ DENC   =       -29.73431183
  -exchange      EXHF   =         0.00000000
  -V(xc)+E(xc)   XCENC  =      -237.68005837
  PAW double counting   =       850.72954174     -587.51302081
  entropy T*S    EENTRO =         0.00000000
  eigenvalues    EBANDS =         2.82577553
  atomic energy  EATOM  =       369.01171218
  Solvation  Ediel_sol  =         0.00000000
  ---------------------------------------------------
  free energy    TOTEN  =       -14.64565470 eV

  energy without entropy =      -14.64565470  energy(sigma->0) =      -14.64565470


--------------------------------------------------------------------------------------------------------




--------------------------------------- Iteration      1(   8)  ---------------------------------------


    POTLOK:  cpu time    0.0055: real time    0.0059
    SETDIJ:  cpu time    0.0018: real time    0.0018
     EDDAV:  cpu time    1.2644: real time    1.2645
 BZINTS: Fermi energy:  4.530168; 16.000000 electrons
         Band energy:   2.468599;  BLOECHL correction: -0.000000
       DOS:  cpu time    0.0060: real time    0.0060
    CHARGE:  cpu time    0.0053: real time    0.0053
    MIXING:  cpu time    0.0005: real time    0.0005
    --------------------------------------------
      LOOP:  cpu time    1.2835: real time    1.2840

 eigenvalue-minimisations  :  8936
 total energy-change (2. order) : 0.7577147E-03  (-0.2134696E-02)
 number of electron      15.9999995 magnetization 
 augmentation part       -1.5365103 magnetization 

 Broyden mixing:
  rms(total) = 0.59341E-02    rms(broyden)= 0.59340E-02
  rms(prec ) = 0.12320E-01
  weight for this iteration     100.00

 eigenvalues of (default mixing * dielectric matrix)
  average eigenvalue GAMMA=   1.8460
  2.7519  1.1908  1.5953

 Free energy of the ion-electron system (eV)
  ---------------------------------------------------
  alpha Z        PSCENC =         5.24900307
  Ewald energy   TEWEN  =      -387.53429618
  -Hartree energ DENC   =       -29.67883267
  -exchange      EXHF   =         0.00000000
  -V(xc)+E(xc)   XCENC  =      -237.44293361
  PAW double counting   =       970.81983874     -707.53798777
  entropy T*S    EENTRO =         0.00000000
  eigenvalues    EBANDS =         2.46859927
  atomic energy  EATOM  =       369.01171218
  Solvation  Ediel_sol  =         0.00000000
  ---------------------------------------------------
  free energy    TOTEN  =       -14.64489698 eV

  energy without entropy =      -14.64489698  energy(sigma->0) =      -14.64489698


--------------------------------------------------------------------------------------------------------




--------------------------------------- Iteration      1(   9)  ---------------------------------------


    POTLOK:  cpu time    0.0060: real time    0.0063
    SETDIJ:  cpu time    0.0018: real time    0.0019
     EDDAV:  cpu time    1.3519: real time    1.4890
 BZINTS: Fermi energy:  4.533026; 16.000000 electrons
         Band energy:   2.523647;  BLOECHL correction: -0.000000
       DOS:  cpu time    0.0058: real time    0.0057
    CHARGE:  cpu time    0.0052: real time    0.0052
    MIXING:  cpu time    0.0004: real time    0.0004
    --------------------------------------------
      LOOP:  cpu time    1.3711: real time    1.5085

 eigenvalue-minimisations  : 10040
 total energy-change (2. order) : 0.6798811E-04  (-0.5701838E-04)
 number of electron      15.9999995 magnetization 
 augmentation part       -1.5366297 magnetization 

 Broyden mixing:
  rms(total) = 0.58686E-02    rms(broyden)= 0.58686E-02
  rms(prec ) = 0.71159E-02
  weight for this iteration     100.00

 eigenvalues of (default mixing * dielectric matrix)
  average eigenvalue GAMMA=   1.8605
  2.7861  0.9591  2.0064  1.6903

 Free energy of the ion-electron system (eV)
  ---------------------------------------------------
  alpha Z        PSCENC =         5.24900307
  Ewald energy   TEWEN  =      -387.53429618
  -Hartree energ DENC   =       -29.71270317
  -exchange      EXHF   =         0.00000000
  -V(xc)+E(xc)   XCENC  =      -237.45795352
  PAW double counting   =       964.51914789     -701.24338612
  entropy T*S    EENTRO =         0.00000000
  eigenvalues    EBANDS =         2.52364686
  atomic energy  EATOM  =       369.01171218
  Solvation  Ediel_sol  =         0.00000000
  ---------------------------------------------------
  free energy    TOTEN  =       -14.64482899 eV

  energy without entropy =      -14.64482899  energy(sigma->0) =      -14.64482899


--------------------------------------------------------------------------------------------------------




--------------------------------------- Iteration      1(  10)  ---------------------------------------


    POTLOK:  cpu time    0.0053: real time    0.0056
    SETDIJ:  cpu time    0.0019: real time    0.0019
     EDDAV:  cpu time    1.6307: real time    1.6392
 BZINTS: Fermi energy:  4.534203; 16.000000 electrons
         Band energy:   2.531024;  BLOECHL correction: -0.000000
       DOS:  cpu time    0.0060: real time    0.0060
    CHARGE:  cpu time    0.0052: real time    0.0052
    MIXING:  cpu time    0.0005: real time    0.0005
    --------------------------------------------
      LOOP:  cpu time    1.6496: real time    1.6584

[...]
      5       1.8296      0.00000
      6       2.0992      0.00000
      7       2.8284      0.00000
      8       2.9194      0.00000
      9       5.9754      0.00000
     10       6.7177      0.00000
     11       7.3750      0.00000
     12       7.6508      0.00000
     13       7.8242      0.00000
     14       8.1457      0.00000
     15       8.4299      0.00000
     16       9.1925      0.00000

 k-point   234 :       0.1839    0.1839    0.5000
  band No.  band energies     occupation 
      1      -4.9435      0.00000
      2      -4.8036      0.00000
      3       0.4272      0.00000
      4       0.5033      0.00000
      5       1.9790      0.00000
      6       2.2050      0.00000
      7       2.7958      0.00000
      8       2.8721      0.00000
      9       5.9796      0.00000
     10       6.7989      0.00000
     11       7.3255      0.00000
     12       7.7583      0.00000
     13       7.8022      0.00000
     14       8.0213      0.00000
     15       8.5200      0.00000
     16       9.3034      0.00000

 k-point   235 :       0.1724    0.1724    0.5000
  band No.  band energies     occupation 
      1      -4.9990      0.00000
      2      -4.8500      0.00000
      3       0.5337      0.00000
      4       0.6027      0.00000
      5       2.1254      0.00000
      6       2.2990      0.00000
      7       2.7836      0.00000
      8       2.8349      0.00000
      9       5.9839      0.00000
     10       6.8661      0.00000
     11       7.2682      0.00000
     12       7.8113      0.00000
     13       7.8733      0.00000
     14       7.9057      0.00000
     15       8.6212      0.00000
     16       9.4295      0.00000

 k-point   236 :       0.1609    0.1609    0.5000
  band No.  band energies     occupation 
      1      -5.0539      0.00000
      2      -4.8965      0.00000
      3       0.6444      0.00000
      4       0.7054      0.00000
      5       2.2652      0.00000
      6       2.3747      0.00000
      7       2.7993      0.00000
      8       2.8129      0.00000
      9       5.9900      0.00000
     10       6.9173      0.00000
     11       7.2057      0.00000
     12       7.7825      0.00000
     13       7.8555      0.00000
     14       8.0120      0.00000
     15       8.7202      0.00000
     16       9.5679      0.00000

 k-point   237 :       0.1494    0.1494    0.5000
  band No.  band energies     occupation 
      1      -5.1074      0.00000
      2      -4.9424      0.00000
      3       0.7563      0.00000
      4       0.8079      0.00000
      5       2.3920      0.00000
      6       2.4309      0.00000
      7       2.8136      0.00000
      8       2.8461      0.00000
      9       6.0000      0.00000
     10       6.9555      0.00000
     11       7.1401      0.00000
     12       7.6684      0.00000
     13       7.9309      0.00000
     14       8.1560      0.00000
     15       8.8000      0.00000
     16       9.7158      0.00000

 k-point   238 :       0.1379    0.1379    0.5000
  band No.  band energies     occupation 
      1      -5.1590      0.00000
      2      -4.9871      0.00000
      3       0.8659      0.00000
      4       0.9067      0.00000
      5       2.4762      0.00000
      6       2.4976      0.00000
      7       2.8465      0.00000
      8       2.9172      0.00000
      9       6.0163      0.00000
     10       6.9852      0.00000
     11       7.0751      0.00000
     12       7.5556      0.00000
     13       8.0267      0.00000
     14       8.3110      0.00000
     15       8.8359      0.00000
     16       9.8624      0.00000

 k-point   239 :       0.1264    0.1264    0.5000
  band No.  band energies     occupation 
      1      -5.2081      0.00000
      2      -5.0300      0.00000
      3       0.9695      0.00000
      4       0.9976      0.00000
      5       2.5237      0.00000
      6       2.5793      0.00000
      7       2.9158      0.00000
      8       3.0015      0.00000
      9       6.0414      0.00000
     10       6.9853      0.00000
     11       7.0397      0.00000
     12       7.4426      0.00000
     13       8.1248      0.00000
     14       8.4743      0.00000
     15       8.8031      0.00000
     16       9.6503      0.00000

 k-point   240 :       0.1149    0.1149    0.5000
  band No.  band energies     occupation 
      1      -5.2543      0.00000
      2      -5.0706      0.00000
      3       1.0632      0.00000
      4       1.0771      0.00000
      5       2.5840      0.00000
      6       2.6488      0.00000
      7       3.0106      0.00000
      8       3.0898      0.00000
      9       6.0776      0.00000
     10       6.9251      0.00000
     11       7.0707      0.00000
     12       7.3277      0.00000
     13       8.1883      0.00000
     14       8.6403      0.00000
     15       8.7219      0.00000
     16       9.3533      0.00000

 k-point   241 :       0.1034    0.1034    0.5000
  band No.  band energies     occupation 
      1      -5.2972      0.00000
      2      -5.1086      0.00000
      3       1.1425      0.00000
      4       1.1439      0.00000
      5       2.6628      0.00000
      6       2.7222      0.00000
      7       3.1149      0.00000
      8       3.1765      0.00000
      9       6.1269      0.00000
     10       6.8561      0.00000
     11       7.1195      0.00000
     12       7.2087      0.00000
     13       8.1452      0.00000
     14       8.6871      0.00000
     15       8.7850      0.00000
     16       9.1007      0.00000

 k-point   242 :       0.0920    0.0920    0.5000
  band No.  band energies     occupation 
      1      -5.3364      0.00000
      2      -5.1435      0.00000
      3       1.1932      0.00000
      4       1.2098      0.00000
      5       2.7619      0.00000
      6       2.8088      0.00000
      7       3.2178      0.00000
      8       3.2581      0.00000
      9       6.1907      0.00000
     10       6.7835      0.00000
     11       7.0837      0.00000
     12       7.1816      0.00000
     13       7.9831      0.00000
     14       8.7395      0.00000
     15       8.7412      0.00000
     16       9.0531      0.00000

 k-point   243 :       0.0805    0.0805    0.5000
  band No.  band energies     occupation 
      1      -5.3716      0.00000
      2      -5.1750      0.00000
      3       1.2299      0.00000
      4       1.2606      0.00000
      5       2.8793      0.00000
      6       2.9111      0.00000
      7       3.3132      0.00000
      8       3.3325      0.00000
      9       6.2691      0.00000
     10       6.7054      0.00000
     11       6.9518      0.00000
     12       7.2568      0.00000
     13       7.7761      0.00000
     14       8.5440      0.00000
     15       8.8209      0.00000
     16       9.1396      0.00000

 k-point   244 :       0.0690    0.0690    0.5000
  band No.  band energies     occupation 
      1      -5.4027      0.00000
      2      -5.2029      0.00000
      3       1.2550      0.00000
      4       1.2978      0.00000
      5       3.0106      0.00000
      6       3.0267      0.00000
      7       3.3977      0.00000
      8       3.3981      0.00000
      9       6.3591      0.00000
     10       6.6178      0.00000
     11       6.8164      0.00000
     12       7.3429      0.00000
     13       7.5735      0.00000
     14       8.3594      0.00000
     15       8.8893      0.00000
     16       9.1048      0.00000

 k-point   245 :       0.0575    0.0575    0.5000
  band No.  band energies     occupation 
      1      -5.4293      0.00000
      2      -5.2268      0.00000
      3       1.2711      0.00000
      4       1.3237      0.00000
      5       3.1495      0.00000
      6       3.1504      0.00000
      7       3.4542      0.00000
      8       3.4696      0.00000
      9       6.4432      0.00000
     10       6.5169      0.00000
     11       6.6969      0.00000
     12       7.3710      0.00000
     13       7.4662      0.00000
     14       8.2061      0.00000
     15       8.9236      0.00000
     16       8.9358      0.00000

 k-point   246 :       0.0460    0.0460    0.5000
  band No.  band energies     occupation 
      1      -5.4513      0.00000
      2      -5.2467      0.00000
      3       1.2808      0.00000
      4       1.3409      0.00000
      5       3.2746      0.00000
      6       3.2876      0.00000
      7       3.5005      0.00000
      8       3.5280      0.00000
      9       6.4032      0.00000
     10       6.4356      0.00000
     11       6.6826      0.00000
     12       7.2410      0.00000
     13       7.5632      0.00000
     14       8.0856      0.00000
     15       8.7250      0.00000
     16       8.9148      0.00000

 k-point   247 :       0.0345    0.0345    0.5000
  band No.  band energies     occupation 
      1      -5.4685      0.00000
      2      -5.2623      0.00000
      3       1.2862      0.00000
      4       1.3518      0.00000
      5       3.3899      0.00000
      6       3.4148      0.00000
      7       3.5371      0.00000
      8       3.5727      0.00000
      9       6.2854      0.00000
     10       6.3318      0.00000
     11       6.7818      0.00000
     12       7.1407      0.00000
     13       7.6735      0.00000
     14       7.9962      0.00000
     15       8.5166      0.00000
     16       8.8676      0.00000

 k-point   248 :       0.0230    0.0230    0.5000
  band No.  band energies     occupation 
      1      -5.4809      0.00000
      2      -5.2735      0.00000
      3       1.2890      0.00000
      4       1.3582      0.00000
      5       3.4856      0.00000
      6       3.5167      0.00000
      7       3.5664      0.00000
      8       3.6034      0.00000
      9       6.1802      0.00000
     10       6.2295      0.00000
     11       6.8974      0.00000
     12       7.0751      0.00000
     13       7.7773      0.00000
     14       7.9348      0.00000
     15       8.3338      0.00000
     16       8.7995      0.00000

 k-point   249 :       0.0115    0.0115    0.5000
  band No.  band energies     occupation 
      1      -5.4884      0.00000
      2      -5.2802      0.00000
      3       1.2902      0.00000
      4       1.3616      0.00000
      5       3.5506      0.00000
      6       3.5659      0.00000
      7       3.6033      0.00000
      8       3.6202      0.00000
      9       6.1068      0.00000
     10       6.1591      0.00000
     11       6.9903      0.00000
     12       7.0388      0.00000
     13       7.8562      0.00000
     14       7.8988      0.00000
     15       8.2020      0.00000
     16       8.7374      0.00000

 k-point   250 :       0.0000    0.0000    0.5000
  band No.  band energies     occupation 
      1      -5.4909      0.00000
      2      -5.2825      0.00000
      3       1.2906      0.00000
      4       1.3626      0.00000
      5       3.5745      0.00000
      6       3.5745      0.00000
      7       3.6248      0.00000
      8       3.6248      0.00000
      9       6.0803      0.00000
     10       6.1341      0.00000
     11       7.0272      0.00000
     12       7.0272      0.00000
     13       7.8868      0.00000
     14       7.8868      0.00000
     15       8.1524      0.00000
     16       8.7116      0.00000


--------------------------------------------------------------------------------------------------------


 soft charge-density along one line, spin component           1
         0         1         2         3         4         5         6         7         8         9
 total charge-density along one line
 
 pseudopotential strength for first ion, spin component:           1
  2.982   9.540   0.000  -0.000   0.000   0.000  -0.000   0.000
  9.540  30.342   0.000  -0.000   0.000   0.000  -0.000   0.000
  0.000   0.000   7.060  -0.000  -0.000  10.404  -0.000  -0.000
 -0.000  -0.000  -0.000   7.060  -0.000  -0.000  10.405  -0.000
  0.000   0.000  -0.000  -0.000   7.060  -0.000  -0.000  10.404
  0.000   0.000  10.404  -0.000  -0.000  14.481  -0.000  -0.000
 -0.000  -0.000  -0.000  10.405  -0.000  -0.000  14.483  -0.000
  0.000   0.000  -0.000  -0.000  10.404  -0.000  -0.000  14.481
 -0.000  -0.000   0.000  -0.000   0.000   0.000  -0.000   0.000
 -0.000  -0.000  -0.000   0.000  -0.000  -0.000   0.000  -0.000
  0.000   0.001  -0.000  -0.000  -0.000  -0.000  -0.000  -0.000
 -0.000  -0.000  -0.000   0.000  -0.000  -0.000   0.000  -0.000
  0.000   0.000   0.000  -0.000   0.000   0.000  -0.000   0.000
 total augmentation occupancy for first ion, spin component:           1
  0.901  -0.013   0.000   0.000   0.000   0.000   0.000   0.000   0.000   0.000  -0.005   0.000   0.000
 -0.013   0.000   0.000   0.000   0.000   0.000   0.000   0.000   0.000   0.000   0.000   0.000  -0.000
  0.000   0.000   0.060  -0.000   0.000  -0.004   0.000   0.000   0.000   0.000   0.000   0.000   0.000
  0.000   0.000  -0.000   0.058   0.000   0.000  -0.004   0.000   0.000   0.000   0.000   0.000   0.000
  0.000   0.000   0.000   0.000   0.060   0.000   0.000  -0.004   0.000   0.000   0.000   0.000   0.000
  0.000   0.000  -0.004   0.000   0.000   0.000   0.000   0.000   0.000   0.000   0.000   0.000   0.000
  0.000   0.000   0.000  -0.004   0.000   0.000   0.000   0.000   0.000   0.000   0.000   0.000   0.000
  0.000   0.000   0.000   0.000  -0.004   0.000   0.000   0.000   0.000   0.000   0.000   0.000   0.000
 -0.000   0.000   0.000   0.000   0.000   0.000   0.000   0.000   0.006   0.000  -0.000  -0.005  -0.000
  0.000   0.000   0.000   0.000   0.000   0.000   0.000   0.000   0.000   0.009   0.000   0.000  -0.005
 -0.005   0.000   0.000   0.000   0.000   0.000   0.000   0.000   0.000   0.000   0.002   0.000  -0.000
  0.000   0.000   0.000   0.000   0.000   0.000   0.000   0.000  -0.005   0.000  -0.000   0.009   0.000
  0.000  -0.000   0.000   0.000   0.000   0.000   0.000   0.000   0.000  -0.005  -0.000   0.000   0.006


------------------------ aborting loop because EDIFF is reached ----------------------------------------


    CHARGE:  cpu time    0.0094: real time    0.0094
    FORLOC:  cpu time    0.0005: real time    0.0042
    FORNL :  cpu time    0.0934: real time    0.1058
    STRESS:  cpu time    0.4142: real time    0.5386
    FORCOR:  cpu time    0.0071: real time    0.0126
    FORHAR:  cpu time    0.0022: real time    0.0066
    MIXING:  cpu time    0.0021: real time    0.0034
    OFIELD:  cpu time    0.0004: real time    0.0050

  FORCE on cell =-STRESS in cart. coord.  units (eV):
  Direction    XX          YY          ZZ          XY          YZ          ZX
  --------------------------------------------------------------------------------------
  Alpha Z     5.24900     5.24900     5.24900
  Ewald    -129.14694  -129.14692  -129.24091    -0.00001     0.00000     0.00000
  Hartree     9.44744     9.44744    10.84272     0.00000     0.00000     0.00000
  E(xc)     -55.96605   -55.96606   -55.73164    -0.00001    -0.00000     0.00000
  Local     -72.24620   -72.24624   -73.41392    -0.00002    -0.00000    -0.00000
  n-local   186.35167   189.85399   185.91519    -4.28077    -0.45088    -0.57982
  augment   -33.38461   -33.38458   -32.96363     0.00003    -0.00000     0.00000
  Kinetic    85.92636    89.92225    89.35988    -2.86416     0.30035    -0.44311
  Fock        0.00000     0.00000     0.00000     0.00000     0.00000     0.00000
  -------------------------------------------------------------------------------------
  Total      -0.02023    -0.02023     0.01670     0.00000     0.00000    -0.00000
  in kB      -0.24352    -0.24352     0.20097     0.00000     0.00000    -0.00000
  external pressure =       -0.10 kB  Pullay stress =        0.00 kB


 VOLUME and BASIS-vectors are now :
 -----------------------------------------------------------------------------
  energy-cutoff  :      400.00
  volume of cell :      133.11
      direct lattice vectors                 reciprocal lattice vectors
     4.597849902  0.000000000  0.000000000     0.217492963  0.125569621  0.000000000
    -2.298924951  3.981854818  0.000000000     0.000000000  0.251139242  0.000000000
     0.000000000  0.000000000  7.270638344     0.000000000  0.000000000  0.137539505

  length of vectors
     4.597849902  4.597849902  7.270638344     0.251139242  0.251139242  0.137539505


 FORCES acting on ions
    electron-ion (+dipol)            ewald-force                    non-local-force                 convergence-correction
 -----------------------------------------------------------------------------------------------
   -.127E-06 -.424E-14 0.577E-07   -.902E-06 -.217E-12 0.389E-06   0.000E+00 0.000E+00 0.000E+00   0.690E-09 0.187E-15 0.365E-07
   -.143E-05 0.167E-05 0.217E+01   -.167E-05 -.208E-05 -.230E+01   0.416E-16 -.416E-16 0.137E+00   0.218E-08 0.458E-09 0.156E-03
   -.370E-06 -.167E-05 -.217E+01   0.175E-05 0.208E-05 0.230E+01   -.971E-16 0.416E-16 -.137E+00   -.255E-08 -.458E-09 -.156E-03
   0.305E-06 -.138E-04 -.265E+01   -.171E-05 -.257E-05 0.752E+00   0.208E-16 0.000E+00 0.190E+01   0.236E-08 0.568E-08 -.614E-03
   0.233E-04 0.138E-04 0.265E+01   0.252E-05 0.257E-05 -.752E+00   0.000E+00 0.000E+00 -.190E+01   -.660E-08 -.568E-08 0.614E-03
 -----------------------------------------------------------------------------------------------
   0.216E-04 0.258E-11 -.377E-04   0.260E-15 0.310E-15 0.355E-14   -.347E-16 0.000E+00 0.000E+00   -.392E-08 0.220E-13 0.225E-07
 
 
 POSITION                                       TOTAL-FORCE (eV/Angst)
 -----------------------------------------------------------------------------------
      0.00000      0.00000      0.00000         0.000000      0.000000     -0.000000
     -0.00000      2.65457      4.59531         0.000000      0.000000      0.000896
      2.29892      1.32728      2.67533         0.000000      0.000000     -0.000896
     -0.00000      2.65457      1.63863         0.000000      0.000000      0.000570
      2.29892      1.32728      5.63201        -0.000000     -0.000000     -0.000570
 -----------------------------------------------------------------------------------
    total drift:                                0.000022      0.000000     -0.000038


--------------------------------------------------------------------------------------------------------



  FREE ENERGIE OF THE ION-ELECTRON SYSTEM (eV)
  ---------------------------------------------------
  free  energy   TOTEN  =       -14.64490422 eV

  energy  without entropy=      -14.64490422  energy(sigma->0) =      -14.64490422
 


--------------------------------------------------------------------------------------------------------


    POTLOK:  cpu time    0.0104: real time    0.0121


--------------------------------------------------------------------------------------------------------


 writing wavefunctions
     LOOP+:  cpu time   18.8408: real time   21.5830
    4ORBIT:  cpu time    0.0000: real time    0.0000
 BZINTS: Fermi energy:  4.535512; 16.000000 electrons
         Band energy:   2.542675;  BLOECHL correction: -0.000000

 total amount of memory used by VASP MPI-rank0    46026. kBytes
=======================================================================

   base      :      30000. kBytes
   nonl-proj :      13332. kBytes
   fftplans  :        208. kBytes
   grid      :        302. kBytes
   one-center:          8. kBytes
   wavefun   :       2176. kBytes
 
  
  
 General timing and accounting informations for this job:
 ========================================================
  
                  Total CPU time used (sec):       23.061
                            User time (sec):       19.541
                          System time (sec):        3.520
                         Elapsed time (sec):       26.749
  
                   Maximum memory used (kb):       79436.
                   Average memory used (kb):           0.
  
                          Minor page faults:        23678
                          Major page faults:            0
                 Voluntary context switches:         2948
