    5    5    1    1
  0.2662213E+02  0.4597850E-09  0.4597850E-09  0.7270638E-09  0.5000000E-15
  1.000000000000000E-004
  CAR 
 unknown system                          
     16    250     16
 
  0.0000000E+00  0.0000000E+00  0.0000000E+00  0.3125000E-02
    1       -6.103166   1.000000
    2       -4.928838   1.000000
    3       -0.630681   1.000000
    4        2.935483   1.000000
    5        2.935503   1.000000
    6        3.604169   1.000000
    7        3.604172   1.000000
    8        3.995035   1.000000
    9        5.595902   0.000000
   10        5.655055   0.000000
   11        7.371220   0.000000
   12        7.371337   0.000000
   13        8.100393   0.000000
   14        8.312526   0.000000
   15        8.312620   0.000000
   16        9.214243   0.000000
 
  0.1250000E+00  0.0000000E+00  0.0000000E+00  0.1875000E-01
    1       -6.000924   1.000000
    2       -4.870760   1.000000
    3       -0.500568   1.000000
    4        2.113048   1.000000
    5        2.676475   1.000000
    6        2.839872   1.000000
    7        3.588035   1.000000
    8        3.856324   1.000000
    9        6.177850   0.000000
   10        6.326841   0.000000
   11        7.019947   0.000000
   12        7.600371   0.000000
   13        7.830320   0.000000
   14        8.315381   0.000000
   15        8.360663   0.000000
   16        8.593244   0.000000
 
  0.2500000E+00  0.0000000E+00  0.0000000E+00  0.1875000E-01
    1       -5.714488   1.000000
    2       -4.735646   1.000000
    3       -0.124850   1.000000
    4        0.869082   1.000000
    5        1.705196   1.000000
    6        2.248289   1.000000
    7        3.375459   1.000000
    8        3.417118   1.000000
    9        5.525307   0.000000
   10        6.674236   0.000000
   11        7.124018   0.000000
   12        7.547130   0.000000
   13        8.121113   0.000000
   14        8.454453   0.000000
   15        8.890295   0.000000
   16        9.266290   0.000000
 
  0.3750000E+00  0.0000000E+00  0.0000000E+00  0.1875000E-01
    1       -5.323797   1.000000
    2       -4.645426   1.000000
    3       -0.078492   1.000000
    4        0.499393   1.000000
    5        0.814846   1.000000
    6        1.933909   1.000000
    7        2.585125   1.000000
    8        3.215848   1.000000
    9        4.973904   0.000000
   10        6.425787   0.000000
   11        6.664750   0.000000
   12        7.239118   0.000000
   13        8.738049   0.000000
   14        9.298356   0.000000
   15       10.161913   0.000000
   16       10.354044   0.000000
 
  0.5000000E+00  0.0000000E+00  0.0000000E+00  0.9375000E-02
    1       -5.074337   1.000000
    2       -4.675266   1.000000
    3       -0.387463   1.000000
    4        0.461121   1.000000
    5        0.952864   1.000000
    6        1.822112   1.000000
    7        2.013170   1.000000
    8        3.133914   1.000000
    9        4.792784   0.000000
   10        6.341697   0.000000
   11        6.485699   0.000000
   12        7.124160   0.000000
   13        9.266675   0.000000
   14        9.607487   0.000000
   15       10.044587   0.000000
   16       10.764935   0.000000
 
  0.1250000E+00  0.1250000E+00  0.0000000E+00  0.1875000E-01
    1       -5.806033   1.000000
    2       -4.773293   1.000000
    3       -0.246211   1.000000
    4        1.384173   1.000000
    5        1.641523   1.000000
    6        2.588743   1.000000
    7        3.226613   1.000000
    8        3.558175   1.000000
    9        6.330938   0.000000
   10        6.720824   0.000000
   11        7.095455   0.000000
   12        7.375866   0.000000
   13        7.508964   0.000000
   14        8.390285   0.000000
   15        8.821252   0.000000
   16        9.026804   0.000000
 
  0.2500000E+00  0.1250000E+00  0.0000000E+00  0.3750000E-01
    1       -5.461342   1.000000
    2       -4.656644   1.000000
    3        0.195918   1.000000
    4        0.462750   1.000000
    5        0.952246   1.000000
    6        1.888001   1.000000
    7        2.843103   1.000000
    8        2.947728   1.000000
    9        5.663673   0.000000
   10        6.510401   0.000000
   11        7.190905   0.000000
   12        7.670006   0.000000
   13        8.195852   0.000000
   14        8.548840   0.000000
   15        9.677159   0.000000
   16        9.836430   0.000000
 
  0.3750000E+00  0.1250000E+00  0.0000000E+00  0.3750000E-01
    1       -5.099258   1.000000
    2       -4.651234   1.000000
    3       -0.225717   1.000000
    4        0.581797   1.000000
    5        0.883533   1.000000
    6        1.405090   1.000000
    7        2.191016   1.000000
    8        2.638702   1.000000
    9        5.274033   0.000000
   10        6.144868   0.000000
   11        7.107597   0.000000
   12        7.805060   0.000000
   13        9.164095   0.000000
   14        9.580476   0.000000
   15        9.931570   0.000000
   16       10.476285   0.000000
 
  0.2500000E+00  0.2500000E+00  0.0000000E+00  0.1875000E-01
    1       -5.121564   1.000000
    2       -4.629906   1.000000
    3        0.113996   1.000000
    4        0.423193   1.000000
    5        0.837261   1.000000
    6        1.275106   1.000000
    7        2.105857   1.000000
    8        2.359227   1.000000
    9        5.145265   0.000000
   10        7.443066   0.000000
   11        7.529184   0.000000
   12        8.359065   0.000000
   13        8.386474   0.000000
   14        9.060461   0.000000
   15        9.953378   0.000000
   16       10.057752   0.000000
 
  0.3750000E+00  0.2500000E+00  0.0000000E+00  0.1875000E-01
    1       -4.886215   1.000000
    2       -4.701129   1.000000
    3       -0.119159   1.000000
    4        0.666765   1.000000
    5        0.705087   1.000000
    6        1.327231   1.000000
    7        1.833352   1.000000
    8        1.862877   1.000000
    9        4.847745   0.000000
   10        7.408378   0.000000
   11        8.337235   0.000000
   12        8.451464   0.000000
   13        9.426451   0.000000
   14        9.515223   0.000000
   15        9.939064   0.000000
   16       10.089395   0.000000
 
  0.0000000E+00  0.0000000E+00  0.2000000E+00  0.6250000E-02
    1       -6.023823   1.000000
    2       -5.084238   1.000000
    3       -0.289799   1.000000
    4        2.994361   1.000000
    5        2.994380   1.000000
    6        3.127510   1.000000
    7        3.536897   1.000000
    8        3.536899   1.000000
    9        5.760240   0.000000
   10        6.180891   0.000000
   11        7.199522   0.000000
   12        7.199651   0.000000
   13        8.083779   0.000000
   14        8.215893   0.000000
   15        8.215929   0.000000
   16        9.213798   0.000000
 
  0.1250000E+00  0.0000000E+00  0.2000000E+00  0.1875000E-01
    1       -5.923290   1.000000
    2       -5.017995   1.000000
    3       -0.183258   1.000000
    4        2.193950   1.000000
    5        2.508815   1.000000
    6        2.729818   1.000000
    7        3.494895   1.000000
    8        3.514385   1.000000
    9        6.235006   0.000000
   10        6.671052   0.000000
   11        7.130428   0.000000
   12        7.305736   0.000000
   13        7.570552   0.000000
   14        8.023740   0.000000
   15        8.602642   0.000000
   16        8.873512   0.000000
 
  0.2500000E+00  0.0000000E+00  0.2000000E+00  0.1875000E-01
    1       -5.642536   1.000000
    2       -4.857098   1.000000
    3        0.081028   1.000000
    4        0.974629   1.000000
    5        1.468298   1.000000
    6        2.316928   1.000000
    7        3.288414   1.000000
    8        3.341769   1.000000
    9        5.739632   0.000000
   10        6.302083   0.000000
   11        6.893961   0.000000
   12        7.581613   0.000000
   13        8.021656   0.000000
   14        8.732011   0.000000
   15        9.249016   0.000000
   16        9.557094   0.000000
 
  0.3750000E+00  0.0000000E+00  0.2000000E+00  0.1875000E-01
    1       -5.264695   1.000000
    2       -4.721304   1.000000
    3       -0.155021   1.000000
    4        0.371664   1.000000
    5        1.010486   1.000000
    6        2.012823   1.000000
    7        2.897584   1.000000
    8        3.051556   1.000000
    9        5.088314   0.000000
   10        5.819326   0.000000
   11        6.762400   0.000000
   12        7.524603   0.000000
   13        8.193140   0.000000
   14        8.981210   0.000000
   15       10.570697   0.000000
   16       10.649102   0.000000
 
  0.5000000E+00  0.0000000E+00  0.2000000E+00  0.1875000E-01
    1       -5.034598   1.000000
    2       -4.708892   1.000000
    3       -0.522444   1.000000
    4        0.151922   1.000000
    5        1.338115   1.000000
    6        1.907370   1.000000
    7        2.446423   1.000000
    8        2.951645   1.000000
    9        4.749916   0.000000
   10        5.687891   0.000000
   11        7.044337   0.000000
   12        7.500256   0.000000
   13        8.081293   0.000000
   14        8.705507   0.000000
   15       11.241987   0.000000
   16       11.669753   0.000000
 
 -0.3750000E+00  0.0000000E+00  0.2000000E+00  0.1875000E-01
    1       -5.270642   1.000000
    2       -4.711054   1.000000
    3       -0.329177   1.000000
    4        0.557832   1.000000
    5        1.114186   1.000000
    6        2.023415   1.000000
    7        2.783571   1.000000
    8        3.027346   1.000000
    9        4.776325   0.000000
   10        5.899039   0.000000
   11        7.356183   0.000000
   12        7.673448   0.000000
   13        7.866116   0.000000
   14        9.293539   0.000000
   15       10.170050   0.000000
   16       10.556915   0.000000
 
 -0.2500000E+00  0.0000000E+00  0.2000000E+00  0.1875000E-01
    1       -5.644650   1.000000
    2       -4.852686   1.000000
    3       -0.024371   1.000000
    4        1.128427   1.000000
    5        1.517913   1.000000
    6        2.340012   1.000000
    7        3.237449   1.000000
    8        3.274703   1.000000
    9        5.218161  -0.000000
   10        6.441436   0.000000
   11        7.532210   0.000000
   12        8.074315   0.000000
   13        8.137394   0.000000
   14        8.578813   0.000000
   15        8.766566   0.000000
   16        9.578052   0.000000
 
 -0.1250000E+00  0.0000000E+00  0.2000000E+00  0.1875000E-01
    1       -5.923558   1.000000
    2       -5.017391   1.000000
    3       -0.190855   1.000000
    4        2.184547   1.000000
    5        2.565708   1.000000
    6        2.763803   1.000000
    7        3.448233   1.000000
    8        3.485202   1.000000
    9        6.037101   0.000000
   10        6.509779   0.000000
   11        7.310842   0.000000
   12        7.698112   0.000000
   13        7.852159   0.000000
   14        7.904518   0.000000
   15        8.562505   0.000000
   16        8.793991   0.000000
 
  0.1250000E+00  0.1250000E+00  0.2000000E+00  0.3750000E-01
    1       -5.732738   1.000000
    2       -4.902176   1.000000
    3       -0.015577   1.000000
    4        1.536207   1.000000
    5        1.560555   1.000000
    6        2.417104   1.000000
    7        3.086930   1.000000
    8        3.470506   1.000000
    9        6.133952   0.000000
   10        6.824489   0.000000
   11        6.932622   0.000000
   12        7.483179   0.000000
   13        7.843624   0.000000
   14        8.281070   0.000000
   15        8.825258   0.000000
   16        9.202173   0.000000
 
  0.2500000E+00  0.1250000E+00  0.2000000E+00  0.3750000E-01
    1       -5.397557   1.000000
    2       -4.749167   1.000000
    3        0.131013   1.000000
    4        0.530074   1.000000
    5        1.111101   1.000000
    6        1.808906   1.000000
    7        2.655727   1.000000
    8        3.193929   1.000000
    9        5.930762   0.000000
   10        6.409267   0.000000
   11        6.700619   0.000000
   12        7.311254   0.000000
   13        8.332755   0.000000
   14        9.156972   0.000000
   15        9.366042   0.000000
   16        9.588709   0.000000
 
  0.3750000E+00  0.1250000E+00  0.2000000E+00  0.3750000E-01
    1       -5.054332   1.000000
    2       -4.694615   1.000000
    3       -0.307268   1.000000
    4        0.222558   1.000000
    5        1.102348   1.000000
    6        1.658932   1.000000
    7        2.362195   1.000000
    8        2.690897   1.000000
    9        5.391117   0.000000
   10        6.213910   0.000000
   11        6.908379   0.000000
   12        7.264215   0.000000
   13        8.503232   0.000000
   14        9.363384   0.000000
   15       10.093379   0.000000
   16       10.835618   0.000000
 
  0.5000000E+00  0.1250000E+00  0.2000000E+00  0.3750000E-01
    1       -5.059219   1.000000
    2       -4.687530   1.000000
    3       -0.394458   1.000000
    4        0.318579   1.000000
    5        1.174134   1.000000
    6        1.624156   1.000000
    7        2.326686   1.000000
    8        2.672693   1.000000
    9        5.248654  -0.000000
   10        6.309854   0.000000
   11        6.812266   0.000000
   12        7.872386   0.000000
   13        8.062603   0.000000
   14        9.592080   0.000000
   15        9.883314   0.000000
   16       10.650502   0.000000
 
 -0.3750000E+00  0.1250000E+00  0.2000000E+00  0.3750000E-01
    1       -5.400038   1.000000
    2       -4.744504   1.000000
    3       -0.036064   1.000000
    4        0.766843   1.000000
    5        1.129457   1.000000
    6        1.779777   1.000000
    7        2.617672   1.000000
    8        3.168513   1.000000
    9        5.490300  -0.000000
   10        6.646262   0.000000
   11        6.952838   0.000000
   12        7.799225   0.000000
   13        8.165510   0.000000
   14        8.646918   0.000000
   15        9.431386   0.000000
   16        9.970823   0.000000
 
  0.2500000E+00  0.2500000E+00  0.2000000E+00  0.3750000E-01
    1       -5.076759   1.000000
    2       -4.675508   1.000000
    3        0.017546   1.000000
    4        0.171033   1.000000
    5        1.023531   1.000000
    6        1.445788   1.000000
    7        1.907229   1.000000
    8        2.783332   1.000000
    9        5.537115   0.000000
   10        6.765495   0.000000
   11        7.515036   0.000000
   12        7.840695   0.000000
   13        8.305817   0.000000
   14        9.016845   0.000000
   15        9.505697   0.000000
   16       10.180352   0.000000
 
  0.3750000E+00  0.2500000E+00  0.2000000E+00  0.3750000E-01
    1       -4.862982   1.000000
    2       -4.711592   1.000000
    3       -0.146389   1.000000
    4        0.337011   1.000000
    5        0.491406   1.000000
    6        1.575987   1.000000
    7        1.902043   1.000000
    8        2.376606   1.000000
    9        5.269843   0.000000
   10        7.137417   0.000000
   11        7.589873   0.000000
   12        7.755643   0.000000
   13        8.968240   0.000000
   14        9.382602   0.000000
   15        9.816698   0.000000
   16       10.328651   0.000000
 
  0.0000000E+00  0.0000000E+00  0.4000000E+00  0.6250000E-02
    1       -5.807285   1.000000
    2       -5.412170   1.000000
    3        0.595326   1.000000
    4        1.801849   1.000000
    5        3.153840   1.000000
    6        3.153853   1.000000
    7        3.362597   1.000000
    8        3.362608   1.000000
    9        6.052988   0.000000
   10        6.383705   0.000000
   11        7.049669   0.000000
   12        7.049828   0.000000
   13        7.908479   0.000000
   14        7.908502   0.000000
   15        8.259565   0.000000
   16        8.905751   0.000000
 
  0.1250000E+00  0.0000000E+00  0.4000000E+00  0.1875000E-01
    1       -5.711995   1.000000
    2       -5.331840   1.000000
    3        0.622584   1.000000
    4        1.600763   1.000000
    5        2.528929   1.000000
    6        2.909433   1.000000
    7        2.918382   1.000000
    8        3.270302   1.000000
    9        6.263165   0.000000
   10        6.803126   0.000000
   11        7.013577   0.000000
   12        7.325928   0.000000
   13        7.632171   0.000000
   14        8.309503   0.000000
   15        8.388168   0.000000
   16        9.573813   0.000000
 
  0.2500000E+00  0.0000000E+00  0.4000000E+00  0.1875000E-01
    1       -5.449875   1.000000
    2       -5.122978   1.000000
    3        0.479573   1.000000
    4        0.757975   1.000000
    5        1.810533   1.000000
    6        2.528841   1.000000
    7        2.745585   1.000000
    8        2.960952   1.000000
    9        5.621983  -0.000000
   10        6.215148   0.000000
   11        7.033042   0.000000
   12        8.001781   0.000000
   13        8.089380   0.000000
   14        9.166297   0.000000
   15        9.375084   0.000000
   16        9.475714   0.000000
 
  0.3750000E+00  0.0000000E+00  0.4000000E+00  0.1875000E-01
    1       -5.113891   1.000000
    2       -4.895138   1.000000
    3       -0.214840   1.000000
    4        0.003750   1.000000
    5        1.877302   1.000000
    6        2.240081   1.000000
    7        2.688850   1.000000
    8        2.807470   1.000000
    9        5.204322  -0.000000
   10        5.704529   0.000000
   11        6.198822   0.000000
   12        7.479198   0.000000
   13        8.330870   0.000000
   14        9.556931   0.000000
   15       10.114767   0.000000
   16       10.908115   0.000000
 
  0.5000000E+00  0.0000000E+00  0.4000000E+00  0.1875000E-01
    1       -4.932632   1.000000
    2       -4.801438   1.000000
    3       -0.626524   1.000000
    4       -0.242632   1.000000
    5        2.127049   1.000000
    6        2.140951   1.000000
    7        2.579835   1.000000
    8        2.759805   1.000000
    9        4.730360   0.000000
   10        5.770362   0.000000
   11        6.227608   0.000000
   12        6.827743   0.000000
   13        8.427792   0.000000
   14        9.560781   0.000000
   15        9.891933   0.000000
   16       11.043014   0.000000
 
 -0.3750000E+00  0.0000000E+00  0.4000000E+00  0.1875000E-01
    1       -5.124031   1.000000
    2       -4.882414   1.000000
    3       -0.359061   1.000000
    4        0.149519   1.000000
    5        1.988534   1.000000
    6        2.258006   1.000000
    7        2.663714   1.000000
    8        2.738523   1.000000
    9        4.671248   0.000001
   10        6.138814   0.000000
   11        6.710754   0.000000
   12        7.009478   0.000000
   13        8.615804   0.000000
   14        9.523686   0.000000
   15        9.779096   0.000000
   16       10.803778   0.000000
 
 -0.2500000E+00  0.0000000E+00  0.4000000E+00  0.1875000E-01
    1       -5.453495   1.000000
    2       -5.118064   1.000000
    3        0.309929   1.000000
    4        0.967182   1.000000
    5        1.854869   1.000000
    6        2.568878   1.000000
    7        2.694459   1.000000
    8        2.905826   1.000000
    9        5.194110  -0.000000
   10        6.550441   0.000000
   11        7.297395   0.000000
   12        8.065506   0.000000
   13        8.465999   0.000000
   14        8.990915   0.000000
   15        9.137592   0.000000
   16        9.316802   0.000000
 
 -0.1250000E+00  0.0000000E+00  0.4000000E+00  0.1875000E-01
    1       -5.712452   1.000000
    2       -5.331201   1.000000
    3        0.603345   1.000000
    4        1.646052   1.000000
    5        2.479610   1.000000
    6        2.962763   1.000000
    7        2.971676   1.000000
    8        3.189532   1.000000
    9        6.077480   0.000000
   10        6.755443   0.000000
   11        7.217980   0.000000
   12        7.531651   0.000000
   13        7.580029   0.000000
   14        8.292981   0.000000
   15        8.513892   0.000000
   16        9.445290   0.000000
 
  0.1250000E+00  0.1250000E+00  0.4000000E+00  0.3750000E-01
    1       -5.533806   1.000000
    2       -5.184929   1.000000
    3        0.530572   1.000000
    4        1.136075   1.000000
    5        2.025062   1.000000
    6        2.377953   1.000000
    7        2.794997   1.000000
    8        2.912349   1.000000
    9        6.052612   0.000000
   10        6.959737   0.000000
   11        7.133779   0.000000
   12        7.581356   0.000000
   13        7.741551   0.000000
   14        8.555596   0.000000
   15        8.906435   0.000000
   16        9.534553   0.000000
 
  0.2500000E+00  0.1250000E+00  0.4000000E+00  0.3750000E-01
    1       -5.229295   1.000000
    2       -4.960638   1.000000
    3        0.178334   1.000000
    4        0.278518   1.000000
    5        1.695938   1.000000
    6        2.005998   1.000000
    7        2.369506   1.000000
    8        2.988715   1.000000
    9        5.921597  -0.000000
   10        6.301818   0.000000
   11        6.824066   0.000000
   12        7.529028   0.000000
   13        8.079906   0.000000
   14        8.782827   0.000000
   15        9.107365   0.000000
   16        9.625796   0.000000
 
  0.3750000E+00  0.1250000E+00  0.4000000E+00  0.3750000E-01
    1       -4.943266   1.000000
    2       -4.801510   1.000000
    3       -0.405219   1.000000
    4       -0.144810   1.000000
    5        1.402863   1.000000
    6        1.928905   1.000000
    7        2.432365   1.000000
    8        3.020416   1.000000
    9        5.463211  -0.000000
   10        6.005380   0.000000
   11        6.547491   0.000000
   12        7.353506   0.000000
   13        7.582465   0.000000
   14        9.125102   0.000000
   15       10.247511   0.000000
   16       10.678478   0.000000
 
  0.5000000E+00  0.1250000E+00  0.4000000E+00  0.3750000E-01
    1       -4.951519   1.000000
    2       -4.791886   1.000000
    3       -0.479138   1.000000
    4       -0.066705   1.000000
    5        1.415180   1.000000
    6        1.936482   1.000000
    7        2.438292   1.000000
    8        2.999744   1.000000
    9        5.157304  -0.000000
   10        6.454097   0.000000
   11        6.637391   0.000000
   12        7.084735   0.000000
   13        7.723660   0.000000
   14        8.899795   0.000000
   15       10.425147   0.000000
   16       10.722724   0.000000
 
 -0.3750000E+00  0.1250000E+00  0.4000000E+00  0.3750000E-01
    1       -5.233526   1.000000
    2       -4.955130   1.000000
    3        0.008893   1.000000
    4        0.463918   1.000000
    5        1.723611   1.000000
    6        2.060830   1.000000
    7        2.292058   1.000000
    8        2.976258   1.000000
    9        5.450990  -0.000000
   10        6.837671   0.000000
   11        7.042762   0.000000
   12        7.677843   0.000000
   13        8.079555   0.000000
   14        8.268284   0.000000
   15        8.855485   0.000000
   16        9.963047   0.000000
 
  0.2500000E+00  0.2500000E+00  0.4000000E+00  0.3750000E-01
    1       -4.961037   1.000000
    2       -4.793008   1.000000
    3       -0.124670   1.000000
    4        0.013424   1.000000
    5        0.949658   1.000000
    6        1.451387   1.000000
    7        2.454208   1.000000
    8        3.095269   1.000000
    9        5.961114   0.000000
   10        6.318981   0.000000
   11        7.176250   0.000000
   12        7.584344   0.000000
   13        8.241366   0.000000
   14        8.371293   0.000000
   15        8.955800   0.000000
   16        9.183445   0.000000
 
  0.3750000E+00  0.2500000E+00  0.4000000E+00  0.3750000E-01
    1       -4.807802   1.000000
    2       -4.745965   1.000000
    3       -0.227942   1.000000
    4       -0.024219   1.000000
    5        0.533077   1.000000
    6        1.167163   1.000000
    7        2.753161   1.000000
    8        3.018225   1.000000
    9        5.913849   0.000000
   10        6.428665   0.000000
   11        6.624282   0.000000
   12        7.538370   0.000000
   13        8.286518   0.000000
   14        8.680190   0.000000
   15        9.969569   0.000000
   16       10.198147   0.000000
 
  0.0000000E+00  0.0000000E+00  0.0000000E+00  0.0000000E+00
    1       -6.103166   0.000000
    2       -4.928838   0.000000
    3       -0.630681   0.000000
    4        2.935483   0.000000
    5        2.935503   0.000000
    6        3.604169   0.000000
    7        3.604172   0.000000
    8        3.995035   0.000000
    9        5.595902   0.000000
   10        5.655055   0.000000
   11        7.371220   0.000000
   12        7.371337   0.000000
   13        8.100393   0.000000
   14        8.312526   0.000000
   15        8.312620   0.000000
   16        9.214199   0.000000
 
  0.1724138E-01  0.0000000E+00  0.0000000E+00  0.0000000E+00
    1       -6.101200   0.000000
    2       -4.927676   0.000000
    3       -0.628189   0.000000
    4        2.914155   0.000000
    5        2.929247   0.000000
    6        3.583043   0.000000
    7        3.604767   0.000000
    8        3.992542   0.000000
    9        5.618783   0.000000
   10        5.674180   0.000000
   11        7.351915   0.000000
   12        7.376135   0.000000
   13        8.110618   0.000000
   14        8.298596   0.000000
   15        8.315723   0.000000
   16        9.188796   0.000000
 
  0.3448276E-01  0.0000000E+00  0.0000000E+00  0.0000000E+00
    1       -6.095290   0.000000
    2       -4.924202   0.000000
    3       -0.620711   0.000000
    4        2.852282   0.000000
    5        2.910968   0.000000
    6        3.522503   0.000000
    7        3.606206   0.000000
    8        3.985030   0.000000
    9        5.683737   0.000000
   10        5.729456   0.000000
   11        7.298516   0.000000
   12        7.390605   0.000000
   13        8.138994   0.000000
   14        8.258546   0.000000
   15        8.323943   0.000000
   16        9.116675   0.000000
 
  0.5172414E-01  0.0000000E+00  0.0000000E+00  0.0000000E+00
    1       -6.085455   0.000000
    2       -4.918454   0.000000
    3       -0.608268   0.000000
    4        2.755449   0.000000
    5        2.881848   0.000000
    6        3.429534   0.000000
    7        3.607589   0.000000
    8        3.972399   0.000000
    9        5.781191   0.000000
   10        5.815174   0.000000
   11        7.222087   0.000000
   12        7.414627   0.000000
   13        8.179364   0.000000
   14        8.198739   0.000000
   15        8.333919   0.000000
   16        9.010758   0.000000
 
  0.6896552E-01  0.0000000E+00  0.0000000E+00  0.0000000E+00
    1       -6.071729   0.000000
    2       -4.910505   0.000000
    3       -0.590882   0.000000
    4        2.630816   0.000000
    5        2.843526   0.000000
    6        3.312267   0.000000
    7        3.607741   0.000000
    8        3.954465   0.000000
    9        5.898996   0.000000
   10        5.922572   0.000000
   11        7.136205   0.000000
   12        7.447849   0.000000
   13        8.118831   0.000000
   14        8.234486   0.000000
   15        8.340820   0.000000
   16        8.886551   0.000000
 
  0.8620690E-01  0.0000000E+00  0.0000000E+00  0.0000000E+00
    1       -6.054157   0.000000
    2       -4.900443   0.000000
    3       -0.568567   0.000000
    4        2.485519   0.000000
    5        2.797798   0.000000
    6        3.177933   0.000000
    7        3.605544   0.000000
    8        3.930993   0.000000
    9        6.024547   0.000000
   10        6.039258   0.000000
   11        7.056923   0.000000
   12        7.489367   0.000000
   13        8.032184   0.000000
   14        8.294136   0.000000
   15        8.340274   0.000000
   16        8.758043   0.000000
 
  0.1034483E+00  0.0000000E+00  0.0000000E+00  0.0000000E+00
    1       -6.032802   0.000000
    2       -4.888390   0.000000
    3       -0.541366   0.000000
    4        2.325713   0.000000
    5        2.746395   0.000000
    6        3.032120   0.000000
    7        3.600130   0.000000
    8        3.901687   0.000000
    9        6.127047   0.000000
   10        6.165076   0.000000
   11        7.005819   0.000000
   12        7.537261   0.000000
   13        7.941422   0.000000
   14        8.331290   0.000000
   15        8.352962   0.000000
   16        8.642676   0.000000
 
  0.1206897E+00  0.0000000E+00  0.0000000E+00  0.0000000E+00
    1       -6.007754   0.000000
    2       -4.874499   0.000000
    3       -0.509328   0.000000
    4        2.156390   0.000000
    5        2.690847   0.000000
    6        2.878944   0.000000
    7        3.590948   0.000000
    8        3.866199   0.000000
    9        6.175752   0.000000
   10        6.295194   0.000000
   11        7.008776   0.000000
   12        7.587922   0.000000
   13        7.851859   0.000000
   14        8.318258   0.000000
   15        8.370743   0.000000
   16        8.588355   0.000000
 
  0.1379310E+00  0.0000000E+00  0.0000000E+00  0.0000000E+00
    1       -5.979095   0.000000
    2       -4.858952   0.000000
    3       -0.472508   0.000000
    4        1.981432   0.000000
    5        2.632497   0.000000
    6        2.721394   0.000000
    7        3.577802   0.000000
    8        3.824197   0.000000
    9        6.160821   0.000000
   10        6.417664   0.000000
   11        7.076419   0.000000
   12        7.635282   0.000000
   13        7.769598   0.000000
   14        8.306382   0.000000
   15        8.310561   0.000000
   16        8.643033   0.000000
 
  0.1551724E+00  0.0000000E+00  0.0000000E+00  0.0000000E+00
    1       -5.946933   0.000000
    2       -4.841963   0.000000
    3       -0.430984   0.000000
    4        1.803873   0.000000
    5        2.561679   0.000000
    6        2.572472   0.000000
    7        3.560772   0.000000
    8        3.775332   0.000000
    9        6.096053   0.000000
   10        6.524881   0.000000
   11        7.186088   0.000000
   12        7.670822   0.000000
   13        7.705366   0.000000
   14        8.221157   0.000000
   15        8.320502   0.000000
   16        8.751461   0.000000
 
  0.1724138E+00  0.0000000E+00  0.0000000E+00  0.0000000E+00
    1       -5.911396   0.000000
    2       -4.823783   0.000000
    3       -0.384855   0.000000
    4        1.626101   0.000000
    5        2.401472   0.000000