 vasp.5.4.4.18Apr17-6-g9f103f2a35 (build May 24 2018 15:12:59) complex          
  
 executed on             LinuxIFC date 2021.02.16  10:47:31
 running on   80 total cores
 distrk:  each k-point on   80 cores,    1 groups
 distr:  one band on NCORES_PER_BAND=  10 cores,    8 groups


--------------------------------------------------------------------------------------------------------


 INCAR:
 POTCAR:    PAW_PBE Mg 13Apr2007                  
 POTCAR:    PAW_PBE Sb 06Sep2000                  
 POTCAR:    PAW_PBE Mg 13Apr2007                  
   VRHFIN =Mg: s2p0                                                             
   LEXCH  = PE                                                                  
   EATOM  =    23.0369 eV,    1.6932 Ry                                         
                                                                                
   TITEL  = PAW_PBE Mg 13Apr2007                                                
   LULTRA =        F    use ultrasoft PP ?                                      
   IUNSCR =        1    unscreen: 0-lin 1-nonlin 2-no                           
   RPACOR =    1.500    partial core radius                                     
   POMASS =   24.305; ZVAL   =    2.000    mass and valenz                      
   RCORE  =    2.000    outmost cutoff radius                                   
   RWIGS  =    2.880; RWIGS  =    1.524    wigner-seitz radius (au A)           
   ENMAX  =  126.143; ENMIN  =   94.607 eV                                      
   RCLOC  =    1.506    cutoff for local pot                                    
   LCOR   =        T    correct aug charges                                     
   LPAW   =        T    paw PP                                                  
   EAUG   =  454.734                                                            
   DEXC   =    0.000                                                            
   RMAX   =    2.045    core radius for proj-oper                               
   RAUG   =    1.300    factor for augmentation sphere                          
   RDEP   =    2.025    radius for radial grids                                 
   RDEPT  =    1.942    core radius for aug-charge                              
                                                                                
   Atomic configuration                                                         
    6 entries                                                                   
     n  l   j            E        occ.                                          
     1  0  0.50     -1259.6230   2.0000                                         
     2  0  0.50       -79.8442   2.0000                                         
     2  1  1.50       -46.6121   6.0000                                         
     3  0  0.50        -4.7055   2.0000                                         
     3  1  0.50        -1.3660   0.0000                                         
     3  2  1.50        -1.3606   0.0000                                         
   Description                                                                  
     l       E           TYP  RCUT    TYP  RCUT                                 
     0     -4.7054661     23  2.000                                             
     0     27.2116520     23  2.000                                             
     1      1.3605826     23  2.000                                             
     1     27.2116520     23  2.000                                             
     2     -1.3605826     23  2.000                                             
  local pseudopotential read in
  partial core-charges read in
  partial kinetic energy density read in
  atomic valenz-charges read in
  non local Contribution for L=           0  read in
    real space projection operators read in
  non local Contribution for L=           0  read in
    real space projection operators read in
  non local Contribution for L=           1  read in
    real space projection operators read in
  non local Contribution for L=           1  read in
    real space projection operators read in
  non local Contribution for L=           2  read in
    real space projection operators read in
    PAW grid and wavefunctions read in
 
   number of l-projection  operators is LMAX  =           5
   number of lm-projection operators is LMMAX =          13
 
 POTCAR:    PAW_PBE Sb 06Sep2000                  
   VRHFIN =Sb: s2p3                                                             
   LEXCH  = PE                                                                  
   EATOM  =   149.9515 eV,   11.0211 Ry                                         
                                                                                
   TITEL  = PAW_PBE Sb 06Sep2000                                                
   LULTRA =        F    use ultrasoft PP ?                                      
   IUNSCR =        1    unscreen: 0-lin 1-nonlin 2-no                           
   RPACOR =    2.200    partial core radius                                     
   POMASS =  121.750; ZVAL   =    5.000    mass and valenz                      
   RCORE  =    2.300    outmost cutoff radius                                   
   RWIGS  =    2.980; RWIGS  =    1.577    wigner-seitz radius (au A)           
   ENMAX  =  172.069; ENMIN  =  129.052 eV                                      
   ICORE  =        3    local potential                                         
   LCOR   =        T    correct aug charges                                     
   LPAW   =        T    paw PP                                                  
   EAUG   =  380.513                                                            
   DEXC   =    0.000                                                            
   RMAX   =    2.346    core radius for proj-oper                               
   RAUG   =    1.300    factor for augmentation sphere                          
   RDEP   =    2.360    radius for radial grids                                 
   RDEPT  =    2.192    core radius for aug-charge                              
                                                                                
   Atomic configuration                                                         
   13 entries                                                                   
     n  l   j            E        occ.                                          
     1  0  0.50    -30298.2797   2.0000                                         
     2  0  0.50     -4610.2252   2.0000                                         
     2  1  1.50     -4138.3407   6.0000                                         
     3  0  0.50      -903.8815   2.0000                                         
     3  1  1.50      -750.1337   6.0000                                         
     3  2  2.50      -515.7092  10.0000                                         
     4  0  0.50      -148.8034   2.0000                                         
     4  1  1.50      -101.7581   6.0000                                         
     4  2  2.50       -33.5048  10.0000                                         
     5  0  0.50       -12.8298   2.0000                                         
     5  1  0.50        -4.8276   3.0000                                         
     5  2  1.50        -4.0817   0.0000                                         
     4  3  2.50        -4.0817   0.0000                                         
   Description                                                                  
     l       E           TYP  RCUT    TYP  RCUT                                 
     0    -12.8297861     23  2.300                                             
     0     13.6058260     23  2.300                                             
     1     -4.8275512     23  2.300                                             
     1     -0.7245443     23  2.300                                             
     2     -4.0817478     23  2.300                                             
     3     -1.3605826     23  2.300                                             
  local pseudopotential read in
  partial core-charges read in
  partial kinetic energy density read in
  atomic valenz-charges read in
  non local Contribution for L=           0  read in
    real space projection operators read in
  non local Contribution for L=           0  read in
    real space projection operators read in
  non local Contribution for L=           1  read in
    real space projection operators read in
  non local Contribution for L=           1  read in
    real space projection operators read in
  non local Contribution for L=           2  read in
    real space projection operators read in
    PAW grid and wavefunctions read in
 
   number of l-projection  operators is LMAX  =           5
   number of lm-projection operators is LMMAX =          13
 

 ----------------------------------------------------------------------------- 
|                                                                             |
|  ADVICE TO THIS USER RUNNING 'VASP/VAMP'   (HEAR YOUR MASTER'S VOICE ...):  |
|                                                                             |
|      You enforced a specific xc-type in the INCAR file,                     |
|      a different type was found on the POTCAR file                          |
|          I HOPE YOU KNOW, WHAT YOU ARE  DOING                               |
|                                                                             |
 ----------------------------------------------------------------------------- 

  PAW_PBE Mg 13Apr2007                  :
 energy of atom  1       EATOM=  -23.0369
 kinetic energy error for atom=    0.0001 (will be added to EATOM!!)
  PAW_PBE Sb 06Sep2000                  :
 energy of atom  2       EATOM= -149.9515
 kinetic energy error for atom=    0.0008 (will be added to EATOM!!)
 
 
 POSCAR: Mg3Sb2                                  
  positions in direct lattice
  velocities in cartesian coordinates

 METAGGA = MBJ      LMAXTAU =  6    LMIXTAU =  F    CMBJ =    1.0000

 exchange correlation table for  LEXCH =        2
   RHO(1)=    0.500       N(1)  =     2000
   RHO(2)=  100.500       N(2)  =     4000
 


--------------------------------------------------------------------------------------------------------


 ion  position               nearest neighbor table
   1  0.000  0.000  0.000-   5 3.12   5 3.12   5 3.12   4 3.12   4 3.12   4 3.12
   2  0.333  0.667  0.632-   5 2.85   5 2.85   5 2.85   4 2.96   3 3.28   3 3.28   3 3.28
   3  0.667  0.333  0.368-   4 2.85   4 2.85   4 2.85   5 2.96   2 3.28   2 3.28   2 3.28
   4  0.333  0.667  0.225-   3 2.85   3 2.85   3 2.85   2 2.96   1 3.12   1 3.12   1 3.12
   5  0.667  0.333  0.775-   2 2.85   2 2.85   2 2.85   3 2.96   1 3.12   1 3.12   1 3.12
 
  LATTYP: Found a hexagonal cell.
 ALAT       =     4.5978499023
 C/A-ratio  =     1.5813126784
  
  Lattice vectors:
  
 A1 = (   4.5978499024,   0.0000000000,   0.0000000000)
 A2 = (  -2.2989249512,   3.9818548182,   0.0000000000)
 A3 = (   0.0000000000,   0.0000000000,   7.2706383437)


Analysis of symmetry for initial positions (statically):
=====================================================================
 Subroutine PRICEL returns:
 Original cell was already a primitive cell.
 

 Routine SETGRP: Setting up the symmetry group for a 
 hexagonal supercell.


 Subroutine GETGRP returns: Found 12 space group operations
 (whereof 12 operations were pure point group operations)
 out of a pool of 24 trial point group operations.


The static configuration has the point symmetry D_3d.


Analysis of symmetry for dynamics (positions and initial velocities):
=====================================================================
 Subroutine PRICEL returns:
 Original cell was already a primitive cell.
 

 Routine SETGRP: Setting up the symmetry group for a 
 hexagonal supercell.


 Subroutine GETGRP returns: Found 12 space group operations
 (whereof 12 operations were pure point group operations)
 out of a pool of 24 trial point group operations.


The dynamic configuration has the point symmetry D_3d.


 Subroutine INISYM returns: Found 12 space group operations
 (whereof 12 operations are pure point group operations),
 and found     1 'primitive' translations

 
 
 KPOINTS: Automatically generated mesh            
  k-points in reciprocal lattice
Space group operators:
 irot       det(A)        alpha          n_x          n_y          n_z        tau_x        tau_y        tau_z
    1     1.000000     0.000001     1.000000     0.000000     0.000000     0.000000     0.000000     0.000000
    2    -1.000000     0.000001     1.000000     0.000000     0.000000     0.000000     0.000000     0.000000
    3     1.000000   120.000000     0.000000     0.000000    -1.000000     0.000000     0.000000     0.000000
    4    -1.000000   120.000000     0.000000     0.000000    -1.000000     0.000000     0.000000     0.000000
    5     1.000000   120.000000     0.000000     0.000000     1.000000     0.000000     0.000000     0.000000
    6    -1.000000   120.000000     0.000000     0.000000     1.000000     0.000000     0.000000     0.000000
    7     1.000000   180.000000     1.000000     0.000000     0.000000     0.000000     0.000000     0.000000
    8    -1.000000   180.000000     1.000000     0.000000     0.000000     0.000000     0.000000     0.000000
    9     1.000000   180.000000     0.500000    -0.866025     0.000000     0.000000     0.000000     0.000000
   10    -1.000000   180.000000     0.500000    -0.866025     0.000000     0.000000     0.000000     0.000000
   11     1.000000   180.000000    -0.500000    -0.866025     0.000000     0.000000     0.000000     0.000000
   12    -1.000000   180.000000    -0.500000    -0.866025     0.000000     0.000000     0.000000     0.000000


--------------------------------------------------------------------------------------------------------




 Dimension of arrays:
   k-points           NKPTS =    250   k-points in BZ     NKDIM =    250   number of bands    NBANDS=     16
   number of dos      NEDOS =    301   number of ions     NIONS =      5
   non local maximal  LDIM  =      5   non local SUM 2l+1 LMDIM =     13
   total plane-waves  NPLWV =  20736
   max r-space proj   IRMAX =      1   max aug-charges    IRDMAX=   8844
   dimension x,y,z NGX =    24 NGY =   24 NGZ =   36
   dimension x,y,z NGXF=    48 NGYF=   48 NGZF=   72
   support grid    NGXF=    48 NGYF=   48 NGZF=   72
   ions per type =               3   2
   NGX,Y,Z   is equivalent  to a cutoff of   8.68,  8.68,  8.23 a.u.
   NGXF,Y,Z  is equivalent  to a cutoff of  17.36, 17.36, 16.46 a.u.

 SYSTEM =  unknown system                          
 POSCAR =  Mg3Sb2                                  

 Startparameter for this run:
   NWRITE =      2    write-flag & timer
   PREC   = normal    normal or accurate (medium, high low for compatibility)
   ISTART =      1    job   : 0-new  1-cont  2-samecut
   ICHARG =      0    charge: 1-file 2-atom 10-const
   ISPIN  =      1    spin polarized calculation?
   LNONCOLLINEAR =      F non collinear calculations
   LSORBIT =      F    spin-orbit coupling
   INIWAV =      1    electr: 0-lowe 1-rand  2-diag
   LASPH  =      T    aspherical Exc in radial PAW
   METAGGA=      F    non-selfconsistent MetaGGA calc.

 Electronic Relaxation 1
   ENCUT  =  400.0 eV  29.40 Ry    5.42 a.u.   7.50  7.50 11.86*2*pi/ulx,y,z
   ENINI  =  400.0     initial cutoff
   ENAUG  =  454.7 eV  augmentation charge cutoff
   NELM   =    300;   NELMIN=  2; NELMDL=  0     # of ELM steps 
   EDIFF  = 0.1E-05   stopping-criterion for ELM
   LREAL  =      F    real-space projection
   NLSPLINE    = F    spline interpolate recip. space projectors
   LCOMPAT=      F    compatible to vasp.4.4
   GGA_COMPAT  = T    GGA compatible to vasp.4.4-vasp.4.6
   LMAXPAW     = -100 max onsite density
   LMAXMIX     =    4 max onsite mixed and CHGCAR
   VOSKOWN=      0    Vosko Wilk Nusair interpolation
   ROPT   =    0.00000   0.00000
 Ionic relaxation
   EDIFFG = 0.1E-04   stopping-criterion for IOM
   NSW    =      0    number of steps for IOM
   NBLOCK =      1;   KBLOCK =      1    inner block; outer block 
   IBRION =     -1    ionic relax: 0-MD 1-quasi-New 2-CG
   NFREE  =      0    steps in history (QN), initial steepest desc. (CG)
   ISIF   =      2    stress and relaxation
   IWAVPR =     10    prediction:  0-non 1-charg 2-wave 3-comb
   ISYM   =      2    0-nonsym 1-usesym 2-fastsym
   LCORR  =      T    Harris-Foulkes like correction to forces

   POTIM  = 0.5000    time-step for ionic-motion
   TEIN   =    0.0    initial temperature
   TEBEG  =    0.0;   TEEND  =   0.0 temperature during run
   SMASS  =  -3.00    Nose mass-parameter (am)
   estimated Nose-frequenzy (Omega)   =  0.10E-29 period in steps =****** mass=  -0.483E-27a.u.
   SCALEE = 1.0000    scale energy and forces
   NPACO  =    256;   APACO  = 16.0  distance and # of slots for P.C.
   PSTRESS=    0.0 pullay stress

  Mass of Ions in am
   POMASS =  24.30121.75
  Ionic Valenz
   ZVAL   =   2.00  5.00
  Atomic Wigner-Seitz radii
   RWIGS  =  -1.00 -1.00
  virtual crystal weights 
   VCA    =   1.00  1.00
   NELECT =      16.0000    total number of electrons
   NUPDOWN=      -1.0000    fix difference up-down

 DOS related values:
   EMIN   =  10.00;   EMAX   =-10.00  energy-range for DOS
   EFERMI =   0.00
   ISMEAR =    -5;   SIGMA  =   0.20  broadening in eV -4-tet -1-fermi 0-gaus

 Electronic relaxation 2 (details)
   IALGO  =     38    algorithm
   LDIAG  =      T    sub-space diagonalisation (order eigenvalues)
   LSUBROT=      F    optimize rotation matrix (better conditioning)
   TURBO    =      0    0=normal 1=particle mesh
   IRESTART =      0    0=no restart 2=restart with 2 vectors
   NREBOOT  =      0    no. of reboots
   NMIN     =      0    reboot dimension
   EREF     =   0.00    reference energy to select bands
   IMIX   =      4    mixing-type and parameters
     AMIX     =   0.40;   BMIX     =  1.00
     AMIX_MAG =   1.60;   BMIX_MAG =  1.00
     AMIN     =   0.10
     WC   =   100.;   INIMIX=   1;  MIXPRE=   1;  MAXMIX= -45

 Intra band minimization:
   WEIMIN = 0.0000     energy-eigenvalue tresh-hold
   EBREAK =  0.16E-07  absolut break condition
   DEPER  =   0.30     relativ break condition  

   TIME   =   0.40     timestep for ELM

  volume/ion in A,a.u.               =      26.62       179.65
  Fermi-wavevector in a.u.,A,eV,Ry     =   0.807937  1.526779  8.881358  0.652761
  Thomas-Fermi vector in A             =   1.916649
 
 Write flags
   LWAVE        =      T    write WAVECAR
   LDOWNSAMPLE  =      F    k-point downsampling of WAVECAR
   LCHARG       =      T    write CHGCAR
   LVTOT        =      F    write LOCPOT, total local potential
   LVHAR        =      F    write LOCPOT, Hartree potential only
   LELF         =      F    write electronic localiz. function (ELF)
   LORBIT       =      0    0 simple, 1 ext, 2 COOP (PROOUT), +10 PAW based schemes


 Dipole corrections
   LMONO  =      F    monopole corrections only (constant potential shift)
   LDIPOL =      F    correct potential (dipole corrections)
   IDIPOL =      0    1-x, 2-y, 3-z, 4-all directions 
   EPSILON=  1.0000000 bulk dielectric constant

 Exchange correlation treatment:
   GGA     =    CA    GGA type
   LEXCH   =     2    internal setting for exchange type
   VOSKOWN=      0    Vosko Wilk Nusair interpolation
   LHFCALC =     F    Hartree Fock is set to
   LHFONE  =     F    Hartree Fock one center treatment
   AEXX    =    0.0000 exact exchange contribution

 Linear response parameters
   LEPSILON=     F    determine dielectric tensor
   LRPA    =     F    only Hartree local field effects (RPA)
   LNABLA  =     F    use nabla operator in PAW spheres
   LVEL    =     F    velocity operator in full k-point grid
   LINTERFAST=   F  fast interpolation
   KINTER  =     0    interpolate to denser k-point grid
   CSHIFT  =0.1000    complex shift for real part using Kramers Kronig
   OMEGAMAX=  -1.0    maximum frequency
   DEG_THRESHOLD= 0.2000000E-02 threshold for treating states as degnerate
   RTIME   =   -0.100 relaxation time in fs
  (WPLASMAI=    0.000 imaginary part of plasma frequency in eV, 0.658/RTIME)
   DFIELD  = 0.0000000 0.0000000 0.0000000 field for delta impulse in time
 
 Orbital magnetization related:
   ORBITALMAG=     F  switch on orbital magnetization
   LCHIMAG   =     F  perturbation theory with respect to B field
   DQ        =  0.001000  dq finite difference perturbation B field
   LLRAUG    =     F  two centre corrections for induced B field



--------------------------------------------------------------------------------------------------------


 Static calculation
 charge density and potential will be updated during run
 non-spin polarized calculation
 Variant of blocked Davidson
 Davidson routine will perform the subspace rotation
 perform sub-space diagonalisation
    after iterative eigenvector-optimisation
 modified Broyden-mixing scheme, WC =      100.0
 initial mixing is a Kerker type mixing with AMIX =  0.4000 and BMIX =      1.0000
 Hartree-type preconditioning will be used
 using additional bands            8
 reciprocal scheme for non local part
 use partial core corrections
 calculate Harris-corrections to forces 
   (improved forces if not selfconsistent)
 use of overlap-Matrix (Vanderbilt PP)
 Fermi weights with tetrahedron method with Bloechl corrections


--------------------------------------------------------------------------------------------------------


  energy-cutoff  :      400.00
  volume of cell :      133.11
      direct lattice vectors                 reciprocal lattice vectors
     4.597849902  0.000000000  0.000000000     0.217492963  0.125569621  0.000000000
    -2.298924951  3.981854818  0.000000000     0.000000000  0.251139242  0.000000000
     0.000000000  0.000000000  7.270638344     0.000000000  0.000000000  0.137539505

  length of vectors
     4.597849902  4.597849902  7.270638344     0.251139242  0.251139242  0.137539505


 
 old parameters found on file WAVECAR:
  energy-cutoff  :      400.00
  volume of cell :      133.11
      direct lattice vectors                 reciprocal lattice vectors
     4.597849902  0.000000000  0.000000000     0.217492963  0.125569621  0.000000000
    -2.298924951  3.981854818  0.000000000     0.000000000  0.251139242  0.000000000
     0.000000000  0.000000000  7.270638344     0.000000000  0.000000000  0.137539505

  length of vectors

 
 k-points in units of 2pi/SCALE and weight: Automatically generated mesh            
   0.00000000  0.00000000  0.00000000       0.003
   0.02718662  0.01569620  0.00000000       0.019
   0.05437324  0.03139241  0.00000000       0.019
   0.08155986  0.04708861  0.00000000       0.019
   0.10874648  0.06278481  0.00000000       0.009
   0.02718662  0.04708861  0.00000000       0.019
   0.05437324  0.06278481  0.00000000       0.037
   0.08155986  0.07848101  0.00000000       0.037
   0.05437324  0.09417722  0.00000000       0.019
   0.08155986  0.10987342  0.00000000       0.019
   0.00000000  0.00000000  0.02750790       0.006
   0.02718662  0.01569620  0.02750790       0.019
   0.05437324  0.03139241  0.02750790       0.019
   0.08155986  0.04708861  0.02750790       0.019
   0.10874648  0.06278481  0.02750790       0.019
  -0.08155986 -0.04708861  0.02750790       0.019
  -0.05437324 -0.03139241  0.02750790       0.019
  -0.02718662 -0.01569620  0.02750790       0.019
   0.02718662  0.04708861  0.02750790       0.037
   0.05437324  0.06278481  0.02750790       0.037
   0.08155986  0.07848101  0.02750790       0.037
   0.10874648  0.09417722  0.02750790       0.037
  -0.08155986 -0.01569620  0.02750790       0.037
   0.05437324  0.09417722  0.02750790       0.037
   0.08155986  0.10987342  0.02750790       0.037
   0.00000000  0.00000000  0.05501580       0.006
   0.02718662  0.01569620  0.05501580       0.019
   0.05437324  0.03139241  0.05501580       0.019
   0.08155986  0.04708861  0.05501580       0.019
   0.10874648  0.06278481  0.05501580       0.019
  -0.08155986 -0.04708861  0.05501580       0.019
  -0.05437324 -0.03139241  0.05501580       0.019
  -0.02718662 -0.01569620  0.05501580       0.019
   0.02718662  0.04708861  0.05501580       0.037
   0.05437324  0.06278481  0.05501580       0.037
   0.08155986  0.07848101  0.05501580       0.037
   0.10874648  0.09417722  0.05501580       0.037
  -0.08155986 -0.01569620  0.05501580       0.037
   0.05437324  0.09417722  0.05501580       0.037
   0.08155986  0.10987342  0.05501580       0.037
   0.00000000  0.00000000  0.00000000       0.000
   0.00374988  0.00216499  0.00000000       0.000
   0.00749976  0.00432999  0.00000000       0.000
   0.01124964  0.00649498  0.00000000       0.000
   0.01499952  0.00865997  0.00000000       0.000
   0.01874939  0.01082497  0.00000000       0.000
   0.02249927  0.01298996  0.00000000       0.000
   0.02624915  0.01515495  0.00000000       0.000
   0.02999903  0.01731995  0.00000000       0.000
   0.03374891  0.01948494  0.00000000       0.000
   0.03749879  0.02164993  0.00000000       0.000
   0.04124866  0.02381493  0.00000000       0.000
   0.04499854  0.02597992  0.00000000       0.000
   0.04874842  0.02814491  0.00000000       0.000
   0.05249830  0.03030991  0.00000000       0.000
   0.05624818  0.03247490  0.00000000       0.000
   0.05999806  0.03463990  0.00000000       0.000
   0.06374794  0.03680489  0.00000000       0.000
   0.06749782  0.03896988  0.00000000       0.000
   0.07124770  0.04113488  0.00000000       0.000
   0.07499757  0.04329987  0.00000000       0.000
   0.07874745  0.04546486  0.00000000       0.000
   0.08249733  0.04762986  0.00000000       0.000
   0.08624721  0.04979485  0.00000000       0.000
   0.08999709  0.05195984  0.00000000       0.000
   0.09374697  0.05412484  0.00000000       0.000
   0.09749685  0.05628983  0.00000000       0.000
   0.10124672  0.05845482  0.00000000       0.000
   0.10499660  0.06061982  0.00000000       0.000
   0.10874648  0.06278481  0.00000000       0.000
   0.10874648  0.06278481  0.00000000       0.000
   0.10749652  0.06494980  0.00000000       0.000
   0.10624656  0.06711480  0.00000000       0.000
   0.10499660  0.06927979  0.00000000       0.000
   0.10374664  0.07144478  0.00000000       0.000
   0.10249668  0.07360978  0.00000000       0.000
   0.10124672  0.07577477  0.00000000       0.000
   0.09999676  0.07793976  0.00000000       0.000
   0.09874681  0.08010476  0.00000000       0.000
   0.09749685  0.08226975  0.00000000       0.000
   0.09624689  0.08443475  0.00000000       0.000
   0.09499693  0.08659974  0.00000000       0.000
   0.09374697  0.08876473  0.00000000       0.000
   0.09249701  0.09092973  0.00000000       0.000
   0.09124705  0.09309472  0.00000000       0.000
   0.08999709  0.09525971  0.00000000       0.000
   0.08874713  0.09742471  0.00000000       0.000
   0.08749717  0.09958970  0.00000000       0.000
   0.08624721  0.10175469  0.00000000       0.000
   0.08499725  0.10391969  0.00000000       0.000
   0.08374729  0.10608468  0.00000000       0.000
   0.08249733  0.10824967  0.00000000       0.000
   0.08124737  0.11041467  0.00000000       0.000
   0.07999741  0.11257966  0.00000000       0.000
   0.07874745  0.11474465  0.00000000       0.000
   0.07749749  0.11690965  0.00000000       0.000
   0.07624753  0.11907464  0.00000000       0.000
   0.07499757  0.12123964  0.00000000       0.000
   0.07374761  0.12340463  0.00000000       0.000
   0.07249765  0.12556962  0.00000000       0.000
   0.07249765  0.12556962  0.00000000       0.000
   0.06999774  0.12123963  0.00000000       0.000
   0.06749782  0.11690965  0.00000000       0.000
   0.06499790  0.11257966  0.00000000       0.000
   0.06249798  0.10824967  0.00000000       0.000
   0.05999806  0.10391969  0.00000000       0.000
   0.05749814  0.09958970  0.00000000       0.000
   0.05499822  0.09525971  0.00000000       0.000
   0.05249830  0.09092973  0.00000000       0.000
   0.04999838  0.08659974  0.00000000       0.000
   0.04749846  0.08226975  0.00000000       0.000
   0.04499854  0.07793976  0.00000000       0.000
   0.04249863  0.07360978  0.00000000       0.000
   0.03999871  0.06927979  0.00000000       0.000
   0.03749879  0.06494980  0.00000000       0.000
   0.03499887  0.06061982  0.00000000       0.000
   0.03249895  0.05628983  0.00000000       0.000
   0.02999903  0.05195984  0.00000000       0.000
   0.02749911  0.04762986  0.00000000       0.000
   0.02499919  0.04329987  0.00000000       0.000
   0.02249927  0.03896988  0.00000000       0.000
   0.01999935  0.03463989  0.00000000       0.000
   0.01749943  0.03030991  0.00000000       0.000
   0.01499952  0.02597992  0.00000000       0.000
   0.01249959  0.02164993  0.00000000       0.000
   0.00999968  0.01731995  0.00000000       0.000
   0.00749976  0.01298996  0.00000000       0.000
   0.00499984  0.00865998  0.00000000       0.000
   0.00249992  0.00432999  0.00000000       0.000
   0.00000000  0.00000000  0.00000000       0.000
   0.00000000  0.00000000  0.00000000       0.000
   0.00000000  0.00000000  0.00237137       0.000
   0.00000000  0.00000000  0.00474274       0.000
   0.00000000  0.00000000  0.00711411       0.000
   0.00000000  0.00000000  0.00948548       0.000
   0.00000000  0.00000000  0.01185685       0.000
   0.00000000  0.00000000  0.01422823       0.000
   0.00000000  0.00000000  0.01659960       0.000
   0.00000000  0.00000000  0.01897097       0.000
   0.00000000  0.00000000  0.02134234       0.000
   0.00000000  0.00000000  0.02371371       0.000
   0.00000000  0.00000000  0.02608508       0.000
   0.00000000  0.00000000  0.02845645       0.000
   0.00000000  0.00000000  0.03082782       0.000
   0.00000000  0.00000000  0.03319919       0.000
   0.00000000  0.00000000  0.03557056       0.000
   0.00000000  0.00000000  0.03794193       0.000
   0.00000000  0.00000000  0.04031330       0.000
   0.00000000  0.00000000  0.04268467       0.000
   0.00000000  0.00000000  0.04505605       0.000
   0.00000000  0.00000000  0.04742742       0.000
   0.00000000  0.00000000  0.04979879       0.000
   0.00000000  0.00000000  0.05217016       0.000
   0.00000000  0.00000000  0.05454153       0.000
   0.00000000  0.00000000  0.05691290       0.000
   0.00000000  0.00000000  0.05928427       0.000
   0.00000000  0.00000000  0.06165564       0.000
   0.00000000  0.00000000  0.06402701       0.000
   0.00000000  0.00000000  0.06639838       0.000
   0.00000000  0.00000000  0.06876975       0.000
   0.00000000  0.00000000  0.06876975       0.000
   0.00374988  0.00216499  0.06876975       0.000
   0.00749976  0.00432999  0.06876975       0.000
   0.01124964  0.00649498  0.06876975       0.000
   0.01499952  0.00865997  0.06876975       0.000
   0.01874939  0.01082497  0.06876975       0.000
   0.02249927  0.01298996  0.06876975       0.000
   0.02624915  0.01515495  0.06876975       0.000
   0.02999903  0.01731995  0.06876975       0.000
   0.03374891  0.01948494  0.06876975       0.000
   0.03749879  0.02164993  0.06876975       0.000
   0.04124866  0.02381493  0.06876975       0.000
   0.04499854  0.02597992  0.06876975       0.000
   0.04874842  0.02814491  0.06876975       0.000
   0.05249830  0.03030991  0.06876975       0.000
   0.05624818  0.03247490  0.06876975       0.000
   0.05999806  0.03463990  0.06876975       0.000
   0.06374794  0.03680489  0.06876975       0.000
   0.06749782  0.03896988  0.06876975       0.000
   0.07124770  0.04113488  0.06876975       0.000
   0.07499757  0.04329987  0.06876975       0.000
   0.07874745  0.04546486  0.06876975       0.000
   0.08249733  0.04762986  0.06876975       0.000
   0.08624721  0.04979485  0.06876975       0.000
   0.08999709  0.05195984  0.06876975       0.000
   0.09374697  0.05412484  0.06876975       0.000
   0.09749685  0.05628983  0.06876975       0.000
   0.10124672  0.05845482  0.06876975       0.000
   0.10499660  0.06061982  0.06876975       0.000
   0.10874648  0.06278481  0.06876975       0.000
   0.10874648  0.06278481  0.06876975       0.000
   0.10749652  0.06494980  0.06876975       0.000
   0.10624656  0.06711480  0.06876975       0.000
   0.10499660  0.06927979  0.06876975       0.000
   0.10374664  0.07144478  0.06876975       0.000
   0.10249668  0.07360978  0.06876975       0.000
   0.10124672  0.07577477  0.06876975       0.000
   0.09999676  0.07793976  0.06876975       0.000
   0.09874681  0.08010476  0.06876975       0.000
   0.09749685  0.08226975  0.06876975       0.000
   0.09624689  0.08443475  0.06876975       0.000
   0.09499693  0.08659974  0.06876975       0.000
   0.09374697  0.08876473  0.06876975       0.000
   0.09249701  0.09092973  0.06876975       0.000
   0.09124705  0.09309472  0.06876975       0.000
   0.08999709  0.09525971  0.06876975       0.000
   0.08874713  0.09742471  0.06876975       0.000
   0.08749717  0.09958970  0.06876975       0.000
   0.08624721  0.10175469  0.06876975       0.000
   0.08499725  0.10391969  0.06876975       0.000
   0.08374729  0.10608468  0.06876975       0.000
   0.08249733  0.10824967  0.06876975       0.000
   0.08124737  0.11041467  0.06876975       0.000
   0.07999741  0.11257966  0.06876975       0.000
   0.07874745  0.11474465  0.06876975       0.000
   0.07749749  0.11690965  0.06876975       0.000
   0.07624753  0.11907464  0.06876975       0.000
   0.07499757  0.12123964  0.06876975       0.000
   0.07374761  0.12340463  0.06876975       0.000
   0.07249765  0.12556962  0.06876975       0.000
   0.07249765  0.12556962  0.06876975       0.000
   0.06999774  0.12123963  0.06876975       0.000
   0.06749782  0.11690965  0.06876975       0.000
   0.06499790  0.11257966  0.06876975       0.000
   0.06249798  0.10824967  0.06876975       0.000
   0.05999806  0.10391969  0.06876975       0.000
   0.05749814  0.09958970  0.06876975       0.000
   0.05499822  0.09525971  0.06876975       0.000
   0.05249830  0.09092973  0.06876975       0.000
   0.04999838  0.08659974  0.06876975       0.000
   0.04749846  0.08226975  0.06876975       0.000
   0.04499854  0.07793976  0.06876975       0.000
   0.04249863  0.07360978  0.06876975       0.000
   0.03999871  0.06927979  0.06876975       0.000
   0.03749879  0.06494980  0.06876975       0.000
   0.03499887  0.06061982  0.06876975       0.000
   0.03249895  0.05628983  0.06876975       0.000
   0.02999903  0.05195984  0.06876975       0.000
   0.02749911  0.04762986  0.06876975       0.000
   0.02499919  0.04329987  0.06876975       0.000
   0.02249927  0.03896988  0.06876975       0.000
   0.01999935  0.03463989  0.06876975       0.000
   0.01749943  0.03030991  0.06876975       0.000
   0.01499952  0.02597992  0.06876975       0.000
   0.01249959  0.02164993  0.06876975       0.000
   0.00999968  0.01731995  0.06876975       0.000
   0.00749976  0.01298996  0.06876975       0.000
   0.00499984  0.00865998  0.06876975       0.000
   0.00249992  0.00432999  0.06876975       0.000
   0.00000000  0.00000000  0.06876975       0.000
 
 k-points in reciprocal lattice and weights: Automatically generated mesh            
   0.00000000  0.00000000  0.00000000       0.003
   0.12500000  0.00000000  0.00000000       0.019
   0.25000000  0.00000000  0.00000000       0.019
   0.37500000  0.00000000  0.00000000       0.019
   0.50000000  0.00000000  0.00000000       0.009
   0.12500000  0.12500000  0.00000000       0.019
   0.25000000  0.12500000  0.00000000       0.037
   0.37500000  0.12500000  0.00000000       0.037
   0.25000000  0.25000000  0.00000000       0.019
   0.37500000  0.25000000  0.00000000       0.019
   0.00000000  0.00000000  0.20000000       0.006
   0.12500000  0.00000000  0.20000000       0.019
   0.25000000  0.00000000  0.20000000       0.019
   0.37500000  0.00000000  0.20000000       0.019
   0.50000000  0.00000000  0.20000000       0.019
  -0.37500000  0.00000000  0.20000000       0.019
  -0.25000000  0.00000000  0.20000000       0.019
  -0.12500000  0.00000000  0.20000000       0.019
   0.12500000  0.12500000  0.20000000       0.037
   0.25000000  0.12500000  0.20000000       0.037
   0.37500000  0.12500000  0.20000000       0.037
   0.50000000  0.12500000  0.20000000       0.037
  -0.37500000  0.12500000  0.20000000       0.037
   0.25000000  0.25000000  0.20000000       0.037
   0.37500000  0.25000000  0.20000000       0.037
   0.00000000  0.00000000  0.40000000       0.006
   0.12500000  0.00000000  0.40000000       0.019
   0.25000000  0.00000000  0.40000000       0.019
   0.37500000  0.00000000  0.40000000       0.019
   0.50000000  0.00000000  0.40000000       0.019
  -0.37500000  0.00000000  0.40000000       0.019
  -0.25000000  0.00000000  0.40000000       0.019
  -0.12500000  0.00000000  0.40000000       0.019
   0.12500000  0.12500000  0.40000000       0.037
   0.25000000  0.12500000  0.40000000       0.037
   0.37500000  0.12500000  0.40000000       0.037
   0.50000000  0.12500000  0.40000000       0.037
  -0.37500000  0.12500000  0.40000000       0.037
   0.25000000  0.25000000  0.40000000       0.037
   0.37500000  0.25000000  0.40000000       0.037
   0.00000000  0.00000000  0.00000000       0.000
   0.01724138  0.00000000  0.00000000       0.000
   0.03448276  0.00000000  0.00000000       0.000
   0.05172414  0.00000000  0.00000000       0.000
   0.06896552  0.00000000  0.00000000       0.000
   0.08620690  0.00000000  0.00000000       0.000
   0.10344828  0.00000000  0.00000000       0.000
   0.12068966  0.00000000  0.00000000       0.000
   0.13793103  0.00000000  0.00000000       0.000
   0.15517241  0.00000000  0.00000000       0.000
   0.17241379  0.00000000  0.00000000       0.000
   0.18965517  0.00000000  0.00000000       0.000
   0.20689655  0.00000000  0.00000000       0.000
   0.22413793  0.00000000  0.00000000       0.000
   0.24137931  0.00000000  0.00000000       0.000
   0.25862069  0.00000000  0.00000000       0.000
   0.27586207  0.00000000  0.00000000       0.000
   0.29310345  0.00000000  0.00000000       0.000
   0.31034483  0.00000000  0.00000000       0.000
   0.32758621  0.00000000  0.00000000       0.000
   0.34482759  0.00000000  0.00000000       0.000
   0.36206897  0.00000000  0.00000000       0.000
   0.37931034  0.00000000  0.00000000       0.000
   0.39655172  0.00000000  0.00000000       0.000
   0.41379310  0.00000000  0.00000000       0.000
   0.43103448  0.00000000  0.00000000       0.000
   0.44827586  0.00000000  0.00000000       0.000
   0.46551724  0.00000000  0.00000000       0.000
   0.48275862  0.00000000  0.00000000       0.000
   0.50000000  0.00000000  0.00000000       0.000
   0.50000000  0.00000000  0.00000000       0.000
   0.49425287  0.01149425  0.00000000       0.000
   0.48850575  0.02298851  0.00000000       0.000
   0.48275862  0.03448276  0.00000000       0.000
   0.47701149  0.04597701  0.00000000       0.000
   0.47126437  0.05747126  0.00000000       0.000
   0.46551724  0.06896552  0.00000000       0.000
   0.45977011  0.08045977  0.00000000       0.000
   0.45402299  0.09195402  0.00000000       0.000
   0.44827586  0.10344828  0.00000000       0.000
   0.44252874  0.11494253  0.00000000       0.000
   0.43678161  0.12643678  0.00000000       0.000
   0.43103448  0.13793103  0.00000000       0.000
   0.42528736  0.14942529  0.00000000       0.000
   0.41954023  0.16091954  0.00000000       0.000
   0.41379310  0.17241379  0.00000000       0.000
   0.40804598  0.18390805  0.00000000       0.000
   0.40229885  0.19540230  0.00000000       0.000
   0.39655172  0.20689655  0.00000000       0.000
   0.39080460  0.21839080  0.00000000       0.000
   0.38505747  0.22988506  0.00000000       0.000
   0.37931034  0.24137931  0.00000000       0.000
   0.37356322  0.25287356  0.00000000       0.000
   0.36781609  0.26436782  0.00000000       0.000
   0.36206897  0.27586207  0.00000000       0.000
   0.35632184  0.28735632  0.00000000       0.000
   0.35057471  0.29885057  0.00000000       0.000
   0.34482759  0.31034483  0.00000000       0.000
   0.33908046  0.32183908  0.00000000       0.000
   0.33333333  0.33333333  0.00000000       0.000
   0.33333333  0.33333333  0.00000000       0.000
   0.32183908  0.32183908  0.00000000       0.000
   0.31034483  0.31034483  0.00000000       0.000
   0.29885057  0.29885057  0.00000000       0.000
   0.28735632  0.28735632  0.00000000       0.000
   0.27586207  0.27586207  0.00000000       0.000
   0.26436782  0.26436782  0.00000000       0.000
   0.25287356  0.25287356  0.00000000       0.000
   0.24137931  0.24137931  0.00000000       0.000
   0.22988506  0.22988506  0.00000000       0.000
   0.21839080  0.21839080  0.00000000       0.000
   0.20689655  0.20689655  0.00000000       0.000
   0.19540230  0.19540230  0.00000000       0.000
   0.18390805  0.18390805  0.00000000       0.000
   0.17241379  0.17241379  0.00000000       0.000
   0.16091954  0.16091954  0.00000000       0.000
   0.14942529  0.14942529  0.00000000       0.000
   0.13793103  0.13793103  0.00000000       0.000
   0.12643678  0.12643678  0.00000000       0.000
   0.11494253  0.11494253  0.00000000       0.000
   0.10344828  0.10344828  0.00000000       0.000
   0.09195402  0.09195402  0.00000000       0.000
   0.08045977  0.08045977  0.00000000       0.000
   0.06896552  0.06896552  0.00000000       0.000
   0.05747126  0.05747126  0.00000000       0.000
   0.04597701  0.04597701  0.00000000       0.000
   0.03448276  0.03448276  0.00000000       0.000
   0.02298851  0.02298851  0.00000000       0.000
   0.01149425  0.01149425  0.00000000       0.000
   0.00000000  0.00000000  0.00000000       0.000
   0.00000000  0.00000000  0.00000000       0.000
   0.00000000  0.00000000  0.01724138       0.000
   0.00000000  0.00000000  0.03448276       0.000
   0.00000000  0.00000000  0.05172414       0.000
   0.00000000  0.00000000  0.06896552       0.000
   0.00000000  0.00000000  0.08620690       0.000
   0.00000000  0.00000000  0.10344828       0.000
   0.00000000  0.00000000  0.12068966       0.000
   0.00000000  0.00000000  0.13793103       0.000
   0.00000000  0.00000000  0.15517241       0.000
   0.00000000  0.00000000  0.17241379       0.000
   0.00000000  0.00000000  0.18965517       0.000
   0.00000000  0.00000000  0.20689655       0.000
   0.00000000  0.00000000  0.22413793       0.000
   0.00000000  0.00000000  0.24137931       0.000
   0.00000000  0.00000000  0.25862069       0.000
   0.00000000  0.00000000  0.27586207       0.000
   0.00000000  0.00000000  0.29310345       0.000
   0.00000000  0.00000000  0.31034483       0.000
   0.00000000  0.00000000  0.32758621       0.000
   0.00000000  0.00000000  0.34482759       0.000
   0.00000000  0.00000000  0.36206897       0.000
   0.00000000  0.00000000  0.37931034       0.000
   0.00000000  0.00000000  0.39655172       0.000
   0.00000000  0.00000000  0.41379310       0.000
   0.00000000  0.00000000  0.43103448       0.000
   0.00000000  0.00000000  0.44827586       0.000
   0.00000000  0.00000000  0.46551724       0.000
   0.00000000  0.00000000  0.48275862       0.000
   0.00000000  0.00000000  0.50000000       0.000
   0.00000000  0.00000000  0.50000000       0.000
   0.01724138  0.00000000  0.50000000       0.000
   0.03448276  0.00000000  0.50000000       0.000
   0.05172414  0.00000000  0.50000000       0.000
   0.06896552  0.00000000  0.50000000       0.000
   0.08620690  0.00000000  0.50000000       0.000
   0.10344828  0.00000000  0.50000000       0.000
   0.12068966  0.00000000  0.50000000       0.000
   0.13793103  0.00000000  0.50000000       0.000
   0.15517241  0.00000000  0.50000000       0.000
   0.17241379  0.00000000  0.50000000       0.000
   0.18965517  0.00000000  0.50000000       0.000
   0.20689655  0.00000000  0.50000000       0.000
   0.22413793  0.00000000  0.50000000       0.000
   0.24137931  0.00000000  0.50000000       0.000
   0.25862069  0.00000000  0.50000000       0.000
   0.27586207  0.00000000  0.50000000       0.000
   0.29310345  0.00000000  0.50000000       0.000
   0.31034483  0.00000000  0.50000000       0.000
   0.32758621  0.00000000  0.50000000       0.000
   0.34482759  0.00000000  0.50000000       0.000
   0.36206897  0.00000000  0.50000000       0.000
   0.37931034  0.00000000  0.50000000       0.000
   0.39655172  0.00000000  0.50000000       0.000
   0.41379310  0.00000000  0.50000000       0.000
   0.43103448  0.00000000  0.50000000       0.000
   0.44827586  0.00000000  0.50000000       0.000
   0.46551724  0.00000000  0.50000000       0.000
   0.48275862  0.00000000  0.50000000       0.000
   0.50000000  0.00000000  0.50000000       0.000
   0.50000000  0.00000000  0.50000000       0.000
   0.49425287  0.01149425  0.50000000       0.000
   0.48850575  0.02298851  0.50000000       0.000
   0.48275862  0.03448276  0.50000000       0.000
   0.47701149  0.04597701  0.50000000       0.000
   0.47126437  0.05747126  0.50000000       0.000
   0.46551724  0.06896552  0.50000000       0.000
   0.45977011  0.08045977  0.50000000       0.000
   0.45402299  0.09195402  0.50000000       0.000
   0.44827586  0.10344828  0.50000000       0.000
   0.44252874  0.11494253  0.50000000       0.000
   0.43678161  0.12643678  0.50000000       0.000
   0.43103448  0.13793103  0.50000000       0.000
   0.42528736  0.14942529  0.50000000       0.000
   0.41954023  0.16091954  0.50000000       0.000
   0.41379310  0.17241379  0.50000000       0.000
   0.40804598  0.18390805  0.50000000       0.000
   0.40229885  0.19540230  0.50000000       0.000
   0.39655172  0.20689655  0.50000000       0.000
   0.39080460  0.21839080  0.50000000       0.000
   0.38505747  0.22988506  0.50000000       0.000
   0.37931034  0.24137931  0.50000000       0.000
   0.37356322  0.25287356  0.50000000       0.000
   0.36781609  0.26436782  0.50000000       0.000
   0.36206897  0.27586207  0.50000000       0.000
   0.35632184  0.28735632  0.50000000       0.000
   0.35057471  0.29885057  0.50000000       0.000
   0.34482759  0.31034483  0.50000000       0.000
   0.33908046  0.32183908  0.50000000       0.000
   0.33333333  0.33333333  0.50000000       0.000
   0.33333333  0.33333333  0.50000000       0.000
   0.32183908  0.32183908  0.50000000       0.000
   0.31034483  0.31034483  0.50000000       0.000
   0.29885057  0.29885057  0.50000000       0.000
   0.28735632  0.28735632  0.50000000       0.000
   0.27586207  0.27586207  0.50000000       0.000
   0.26436782  0.26436782  0.50000000       0.000
   0.25287356  0.25287356  0.50000000       0.000
   0.24137931  0.24137931  0.50000000       0.000
   0.22988506  0.22988506  0.50000000       0.000
   0.21839080  0.21839080  0.50000000       0.000
   0.20689655  0.20689655  0.50000000       0.000
   0.19540230  0.19540230  0.50000000       0.000
   0.18390805  0.18390805  0.50000000       0.000
   0.17241379  0.17241379  0.50000000       0.000
   0.16091954  0.16091954  0.50000000       0.000
   0.14942529  0.14942529  0.50000000       0.000
   0.13793103  0.13793103  0.50000000       0.000
   0.12643678  0.12643678  0.50000000       0.000
   0.11494253  0.11494253  0.50000000       0.000
   0.10344828  0.10344828  0.50000000       0.000
   0.09195402  0.09195402  0.50000000       0.000
   0.08045977  0.08045977  0.50000000       0.000
   0.06896552  0.06896552  0.50000000       0.000
   0.05747126  0.05747126  0.50000000       0.000
   0.04597701  0.04597701  0.50000000       0.000
   0.03448276  0.03448276  0.50000000       0.000
   0.02298851  0.02298851  0.50000000       0.000
   0.01149425  0.01149425  0.50000000       0.000
   0.00000000  0.00000000  0.50000000       0.000
 
 position of ions in fractional coordinates (direct lattice) 
   0.00000000  0.00000000  0.00000000
   0.33333334  0.66666669  0.63203644
   0.66666663  0.33333331  0.36796356
   0.33333334  0.66666669  0.22537666
   0.66666663  0.33333331  0.77462337
 
 position of ions in cartesian coordinates  (Angst):
   0.00000000  0.00000000  0.00000000
  -0.00000000  2.65456996  4.59530835
   2.29892482  1.32728486  2.67533000
  -0.00000000  2.65456996  1.63863216
   2.29892482  1.32728486  5.63200640
 


--------------------------------------------------------------------------------------------------------


 k-point  1 :   0.0000 0.0000 0.0000  plane waves:    2429
 k-point  2 :   0.1250 0.0000 0.0000  plane waves:    2413
 k-point  3 :   0.2500 0.0000 0.0000  plane waves:    2429
 k-point  4 :   0.3750 0.0000 0.0000  plane waves:    2427
 k-point  5 :   0.5000 0.0000 0.0000  plane waves:    2396
 k-point  6 :   0.1250 0.1250 0.0000  plane waves:    2429
 k-point  7 :   0.2500 0.1250 0.0000  plane waves:    2413
 k-point  8 :   0.3750 0.1250 0.0000  plane waves:    2412
 k-point  9 :   0.2500 0.2500 0.0000  plane waves:    2415
 k-point 10 :   0.3750 0.2500 0.0000  plane waves:    2424
 k-point 11 :   0.0000 0.0000 0.2000  plane waves:    2430
 k-point 12 :   0.1250 0.0000 0.2000  plane waves:    2428
 k-point 13 :   0.2500 0.0000 0.2000  plane waves:    2430
 k-point 14 :   0.3750 0.0000 0.2000  plane waves:    2416
 k-point 15 :   0.5000 0.0000 0.2000  plane waves:    2406
 k-point 16 :  -0.3750 0.0000 0.2000  plane waves:    2416
 k-point 17 :  -0.2500 0.0000 0.2000  plane waves:    2430
 k-point 18 :  -0.1250 0.0000 0.2000  plane waves:    2428
 k-point 19 :   0.1250 0.1250 0.2000  plane waves:    2424
 k-point 20 :   0.2500 0.1250 0.2000  plane waves:    2420
 k-point 21 :   0.3750 0.1250 0.2000  plane waves:    2405
 k-point 22 :   0.5000 0.1250 0.2000  plane waves:    2405
 k-point 23 :  -0.3750 0.1250 0.2000  plane waves:    2420
 k-point 24 :   0.2500 0.2500 0.2000  plane waves:    2411
 k-point 25 :   0.3750 0.2500 0.2000  plane waves:    2410
 k-point 26 :   0.0000 0.0000 0.4000  plane waves:    2424
 k-point 27 :   0.1250 0.0000 0.4000  plane waves:    2443
 k-point 28 :   0.2500 0.0000 0.4000  plane waves:    2434
 k-point 29 :   0.3750 0.0000 0.4000  plane waves:    2426
 k-point 30 :   0.5000 0.0000 0.4000  plane waves:    2400
 k-point 31 :  -0.3750 0.0000 0.4000  plane waves:    2426
 k-point 32 :  -0.2500 0.0000 0.4000  plane waves:    2434
 k-point 33 :  -0.1250 0.0000 0.4000  plane waves:    2443
 k-point 34 :   0.1250 0.1250 0.4000  plane waves:    2430
 k-point 35 :   0.2500 0.1250 0.4000  plane waves:    2426
 k-point 36 :   0.3750 0.1250 0.4000  plane waves:    2408
 k-point 37 :   0.5000 0.1250 0.4000  plane waves:    2408
 k-point 38 :  -0.3750 0.1250 0.4000  plane waves:    2426
 k-point 39 :   0.2500 0.2500 0.4000  plane waves:    2408
 k-point 40 :   0.3750 0.2500 0.4000  plane waves:    2393
 k-point 41 :   0.0000 0.0000 0.0000  plane waves:    2429
 k-point 42 :   0.0172 0.0000 0.0000  plane waves:    2429
 k-point 43 :   0.0345 0.0000 0.0000  plane waves:    2417
 k-point 44 :   0.0517 0.0000 0.0000  plane waves:    2401
 k-point 45 :   0.0690 0.0000 0.0000  plane waves:    2407
 k-point 46 :   0.0862 0.0000 0.0000  plane waves:    2407
 k-point 47 :   0.1034 0.0000 0.0000  plane waves:    2407
 k-point 48 :   0.1207 0.0000 0.0000  plane waves:    2413
 k-point 49 :   0.1379 0.0000 0.0000  plane waves:    2417
 k-point 50 :   0.1552 0.0000 0.0000  plane waves:    2421
 k-point 51 :   0.1724 0.0000 0.0000  plane waves:    2429
 k-point 52 :   0.1897 0.0000 0.0000  plane waves:    2435
 k-point 53 :   0.2069 0.0000 0.0000  plane waves:    2435
 k-point 54 :   0.2241 0.0000 0.0000  plane waves:    2425
 k-point 55 :   0.2414 0.0000 0.0000  plane waves:    2429
 k-point 56 :   0.2586 0.0000 0.0000  plane waves:    2427
 k-point 57 :   0.2759 0.0000 0.0000  plane waves:    2431
 k-point 58 :   0.2931 0.0000 0.0000  plane waves:    2429
 k-point 59 :   0.3103 0.0000 0.0000  plane waves:    2429
 k-point 60 :   0.3276 0.0000 0.0000  plane waves:    2421
 k-point 61 :   0.3448 0.0000 0.0000  plane waves:    2423
 k-point 62 :   0.3621 0.0000 0.0000  plane waves:    2419
 k-point 63 :   0.3793 0.0000 0.0000  plane waves:    2427
 k-point 64 :   0.3966 0.0000 0.0000  plane waves:    2423
 k-point 65 :   0.4138 0.0000 0.0000  plane waves:    2415
 k-point 66 :   0.4310 0.0000 0.0000  plane waves:    2405
 k-point 67 :   0.4483 0.0000 0.0000  plane waves:    2413
 k-point 68 :   0.4655 0.0000 0.0000  plane waves:    2403
 k-point 69 :   0.4828 0.0000 0.0000  plane waves:    2405
 k-point 70 :   0.5000 0.0000 0.0000  plane waves:    2396
 k-point 71 :   0.5000 0.0000 0.0000  plane waves:    2396
 k-point 72 :   0.4943 0.0115 0.0000  plane waves:    2400
 k-point 73 :   0.4885 0.0230 0.0000  plane waves:    2402
 k-point 74 :   0.4828 0.0345 0.0000  plane waves:    2390
 k-point 75 :   0.4770 0.0460 0.0000  plane waves:    2398
 k-point 76 :   0.4713 0.0575 0.0000  plane waves:    2394
 k-point 77 :   0.4655 0.0690 0.0000  plane waves:    2400
 k-point 78 :   0.4598 0.0805 0.0000  plane waves:    2400
 k-point 79 :   0.4540 0.0920 0.0000  plane waves:    2404
 k-point 80 :   0.4483 0.1034 0.0000  plane waves:    2408
 k-point 81 :   0.4425 0.1149 0.0000  plane waves:    2404
 k-point 82 :   0.4368 0.1264 0.0000  plane waves:    2410
 k-point 83 :   0.4310 0.1379 0.0000  plane waves:    2410
 k-point 84 :   0.4253 0.1494 0.0000  plane waves:    2410
 k-point 85 :   0.4195 0.1609 0.0000  plane waves:    2410
 k-point 86 :   0.4138 0.1724 0.0000  plane waves:    2406
 k-point 87 :   0.4080 0.1839 0.0000  plane waves:    2406
 k-point 88 :   0.4023 0.1954 0.0000  plane waves:    2402
 k-point 89 :   0.3966 0.2069 0.0000  plane waves:    2410
 k-point 90 :   0.3908 0.2184 0.0000  plane waves:    2420
 k-point 91 :   0.3851 0.2299 0.0000  plane waves:    2428
 k-point 92 :   0.3793 0.2414 0.0000  plane waves:    2424
 k-point 93 :   0.3736 0.2529 0.0000  plane waves:    2424
 k-point 94 :   0.3678 0.2644 0.0000  plane waves:    2430
 k-point 95 :   0.3621 0.2759 0.0000  plane waves:    2430
 k-point 96 :   0.3563 0.2874 0.0000  plane waves:    2426
 k-point 97 :   0.3506 0.2989 0.0000  plane waves:    2426
 k-point 98 :   0.3448 0.3103 0.0000  plane waves:    2422
 k-point 99 :   0.3391 0.3218 0.0000  plane waves:    2420
 k-point ** :   0.3333 0.3333 0.0000  plane waves:    2424
 k-point ** :   0.3333 0.3333 0.0000  plane waves:    2424
 k-point ** :   0.3218 0.3218 0.0000  plane waves:    2418
 k-point ** :   0.3103 0.3103 0.0000  plane waves:    2422
 k-point ** :   0.2989 0.2989 0.0000  plane waves:    2420
 k-point ** :   0.2874 0.2874 0.0000  plane waves:    2414
 k-point ** :   0.2759 0.2759 0.0000  plane waves:    2402
 k-point ** :   0.2644 0.2644 0.0000  plane waves:    2400
 k-point ** :   0.2529 0.2529 0.0000  plane waves:    2408
 k-point ** :   0.2414 0.2414 0.0000  plane waves:    2411
 k-point ** :   0.2299 0.2299 0.0000  plane waves:    2417
 k-point ** :   0.2184 0.2184 0.0000  plane waves:    2421
 k-point ** :   0.2069 0.2069 0.0000  plane waves:    2405
 k-point ** :   0.1954 0.1954 0.0000  plane waves:    2403
 k-point ** :   0.1839 0.1839 0.0000  plane waves:    2415
 k-point ** :   0.1724 0.1724 0.0000  plane waves:    2415
 k-point ** :   0.1609 0.1609 0.0000  plane waves:    2415
 k-point ** :   0.1494 0.1494 0.0000  plane waves:    2427
 k-point ** :   0.1379 0.1379 0.0000  plane waves:    2425
 k-point ** :   0.1264 0.1264 0.0000  plane waves:    2429
 k-point ** :   0.1149 0.1149 0.0000  plane waves:    2429
 k-point ** :   0.1034 0.1034 0.0000  plane waves:    2425
 k-point ** :   0.0920 0.0920 0.0000  plane waves:    2417
 k-point ** :   0.0805 0.0805 0.0000  plane waves:    2417
 k-point ** :   0.0690 0.0690 0.0000  plane waves:    2409
 k-point ** :   0.0575 0.0575 0.0000  plane waves:    2405
 k-point ** :   0.0460 0.0460 0.0000  plane waves:    2403
 k-point ** :   0.0345 0.0345 0.0000  plane waves:    2401
 k-point ** :   0.0230 0.0230 0.0000  plane waves:    2415
 k-point ** :   0.0115 0.0115 0.0000  plane waves:    2429
 k-point ** :   0.0000 0.0000 0.0000  plane waves:    2429
 k-point ** :   0.0000 0.0000 0.0000  plane waves:    2429
 k-point ** :   0.0000 0.0000 0.0172  plane waves:    2429
 k-point ** :   0.0000 0.0000 0.0345  plane waves:    2423
 k-point ** :   0.0000 0.0000 0.0517  plane waves:    2423
 k-point ** :   0.0000 0.0000 0.0690  plane waves:    2423
 k-point ** :   0.0000 0.0000 0.0862  plane waves:    2423
 k-point ** :   0.0000 0.0000 0.1034  plane waves:    2411
 k-point ** :   0.0000 0.0000 0.1207  plane waves:    2405
 k-point ** :   0.0000 0.0000 0.1379  plane waves:    2417
 k-point ** :   0.0000 0.0000 0.1552  plane waves:    2418
 k-point ** :   0.0000 0.0000 0.1724  plane waves:    2430
 k-point ** :   0.0000 0.0000 0.1897  plane waves:    2430
 k-point ** :   0.0000 0.0000 0.2069  plane waves:    2430
 k-point ** :   0.0000 0.0000 0.2241  plane waves:    2442
 k-point ** :   0.0000 0.0000 0.2414  plane waves:    2442
 k-point ** :   0.0000 0.0000 0.2586  plane waves:    2430
 k-point ** :   0.0000 0.0000 0.2759  plane waves:    2430
 k-point ** :   0.0000 0.0000 0.2931  plane waves:    2430
 k-point ** :   0.0000 0.0000 0.3103  plane waves:    2430
 k-point ** :   0.0000 0.0000 0.3276  plane waves:    2430
 k-point ** :   0.0000 0.0000 0.3448  plane waves:    2424
 k-point ** :   0.0000 0.0000 0.3621  plane waves:    2424
 k-point ** :   0.0000 0.0000 0.3793  plane waves:    2424
 k-point ** :   0.0000 0.0000 0.3966  plane waves:    2424
 k-point ** :   0.0000 0.0000 0.4138  plane waves:    2412
 k-point ** :   0.0000 0.0000 0.4310  plane waves:    2406
 k-point ** :   0.0000 0.0000 0.4483  plane waves:    2412
 k-point ** :   0.0000 0.0000 0.4655  plane waves:    2412
 k-point ** :   0.0000 0.0000 0.4828  plane waves:    2418
 k-point ** :   0.0000 0.0000 0.5000  plane waves:    2424
 k-point ** :   0.0000 0.0000 0.5000  plane waves:    2424
 k-point ** :   0.0172 0.0000 0.5000  plane waves:    2416
 k-point ** :   0.0345 0.0000 0.5000  plane waves:    2410
 k-point ** :   0.0517 0.0000 0.5000  plane waves:    2414
 k-point ** :   0.0690 0.0000 0.5000  plane waves:    2418
 k-point ** :   0.0862 0.0000 0.5000  plane waves:    2430
 k-point ** :   0.1034 0.0000 0.5000  plane waves:    2434
 k-point ** :   0.1207 0.0000 0.5000  plane waves:    2440
 k-point ** :   0.1379 0.0000 0.5000  plane waves:    2436
 k-point ** :   0.1552 0.0000 0.5000  plane waves:    2428
 k-point ** :   0.1724 0.0000 0.5000  plane waves:    2428
 k-point ** :   0.1897 0.0000 0.5000  plane waves:    2432
 k-point ** :   0.2069 0.0000 0.5000  plane waves:    2434
 k-point ** :   0.2241 0.0000 0.5000  plane waves:    2438
 k-point ** :   0.2414 0.0000 0.5000  plane waves:    2442
 k-point ** :   0.2586 0.0000 0.5000  plane waves:    2444
 k-point ** :   0.2759 0.0000 0.5000  plane waves:    2436
 k-point ** :   0.2931 0.0000 0.5000  plane waves:    2428
 k-point ** :   0.3103 0.0000 0.5000  plane waves:    2428
 k-point ** :   0.3276 0.0000 0.5000  plane waves:    2428
 k-point ** :   0.3448 0.0000 0.5000  plane waves:    2428
 k-point ** :   0.3621 0.0000 0.5000  plane waves:    2438
 k-point ** :   0.3793 0.0000 0.5000  plane waves:    2442
 k-point ** :   0.3966 0.0000 0.5000  plane waves:    2422
 k-point ** :   0.4138 0.0000 0.5000  plane waves:    2426
 k-point ** :   0.4310 0.0000 0.5000  plane waves:    2426
 k-point ** :   0.4483 0.0000 0.5000  plane waves:    2416
 k-point ** :   0.4655 0.0000 0.5000  plane waves:    2412
 k-point ** :   0.4828 0.0000 0.5000  plane waves:    2402
 k-point ** :   0.5000 0.0000 0.5000  plane waves:    2392
 k-point ** :   0.5000 0.0000 0.5000  plane waves:    2392
 k-point ** :   0.4943 0.0115 0.5000  plane waves:    2392
 k-point ** :   0.4885 0.0230 0.5000  plane waves:    2396
 k-point ** :   0.4828 0.0345 0.5000  plane waves:    2396
 k-point ** :   0.4770 0.0460 0.5000  plane waves:    2400
 k-point ** :   0.4713 0.0575 0.5000  plane waves:    2412
 k-point ** :   0.4655 0.0690 0.5000  plane waves:    2414
 k-point ** :   0.4598 0.0805 0.5000  plane waves:    2406
 k-point ** :   0.4540 0.0920 0.5000  plane waves:    2410
 k-point ** :   0.4483 0.1034 0.5000  plane waves:    2406
 k-point ** :   0.4425 0.1149 0.5000  plane waves:    2402
 k-point ** :   0.4368 0.1264 0.5000  plane waves:    2398
 k-point ** :   0.4310 0.1379 0.5000  plane waves:    2398
 k-point ** :   0.4253 0.1494 0.5000  plane waves:    2398
 k-point ** :   0.4195 0.1609 0.5000  plane waves:    2406
 k-point ** :   0.4138 0.1724 0.5000  plane waves:    2400
 k-point ** :   0.4080 0.1839 0.5000  plane waves:    2396
 k-point ** :   0.4023 0.1954 0.5000  plane waves:    2396
 k-point ** :   0.3966 0.2069 0.5000  plane waves:    2396
 k-point ** :   0.3908 0.2184 0.5000  plane waves:    2396
 k-point ** :   0.3851 0.2299 0.5000  plane waves:    2406
 k-point ** :   0.3793 0.2414 0.5000  plane waves:    2402
 k-point ** :   0.3736 0.2529 0.5000  plane waves:    2394
 k-point ** :   0.3678 0.2644 0.5000  plane waves:    2394
 k-point ** :   0.3621 0.2759 0.5000  plane waves:    2398
 k-point ** :   0.3563 0.2874 0.5000  plane waves:    2390
 k-point ** :   0.3506 0.2989 0.5000  plane waves:    2394
 k-point ** :   0.3448 0.3103 0.5000  plane waves:    2386
 k-point ** :   0.3391 0.3218 0.5000  plane waves:    2394
 k-point ** :   0.3333 0.3333 0.5000  plane waves:    2388
 k-point ** :   0.3333 0.3333 0.5000  plane waves:    2388
 k-point ** :   0.3218 0.3218 0.5000  plane waves:    2392
 k-point ** :   0.3103 0.3103 0.5000  plane waves:    2402
 k-point ** :   0.2989 0.2989 0.5000  plane waves:    2402
 k-point ** :   0.2874 0.2874 0.5000  plane waves:    2398
 k-point ** :   0.2759 0.2759 0.5000  plane waves:    2400
 k-point ** :   0.2644 0.2644 0.5000  plane waves:    2408
 k-point ** :   0.2529 0.2529 0.5000  plane waves:    2408
 k-point ** :   0.2414 0.2414 0.5000  plane waves:    2410
 k-point ** :   0.2299 0.2299 0.5000  plane waves:    2410
 k-point ** :   0.2184 0.2184 0.5000  plane waves:    2418
 k-point ** :   0.2069 0.2069 0.5000  plane waves:    2422
 k-point ** :   0.1954 0.1954 0.5000  plane waves:    2422
 k-point ** :   0.1839 0.1839 0.5000  plane waves:    2418
 k-point ** :   0.1724 0.1724 0.5000  plane waves:    2426
 k-point ** :   0.1609 0.1609 0.5000  plane waves:    2426
 k-point ** :   0.1494 0.1494 0.5000  plane waves:    2434
 k-point ** :   0.1379 0.1379 0.5000  plane waves:    2434
 k-point ** :   0.1264 0.1264 0.5000  plane waves:    2440
 k-point ** :   0.1149 0.1149 0.5000  plane waves:    2452
 k-point ** :   0.1034 0.1034 0.5000  plane waves:    2452
 k-point ** :   0.0920 0.0920 0.5000  plane waves:    2450
 k-point ** :   0.0805 0.0805 0.5000  plane waves:    2444
 k-point ** :   0.0690 0.0690 0.5000  plane waves:    2436
 k-point ** :   0.0575 0.0575 0.5000  plane waves:    2440
 k-point ** :   0.0460 0.0460 0.5000  plane waves:    2436
 k-point ** :   0.0345 0.0345 0.5000  plane waves:    2424
 k-point ** :   0.0230 0.0230 0.5000  plane waves:    2412
 k-point ** :   0.0115 0.0115 0.5000  plane waves:    2416
 k-point ** :   0.0000 0.0000 0.5000  plane waves:    2424

 maximum and minimum number of plane-waves per node :       259      220

 maximum number of plane-waves:      2452
 maximum index in each direction: 
   IXMAX=    7   IYMAX=    7   IZMAX=   11
   IXMIN=   -7   IYMIN=   -7   IZMIN=  -12


 parallel 3D FFT for wavefunctions:
    minimum data exchange during FFTs selected (reduces bandwidth)
 parallel 3D FFT for charge:
    minimum data exchange during FFTs selected (reduces bandwidth)


 total amount of memory used by VASP MPI-rank0    46026. kBytes
=======================================================================

   base      :      30000. kBytes
   nonl-proj :      13332. kBytes
   fftplans  :        208. kBytes
   grid      :        302. kBytes
   one-center:          8. kBytes
   wavefun   :       2176. kBytes
 
     INWAV:  cpu time    1.9007: real time    1.9837
 Broyden mixing: mesh for mixing (old mesh)
   NGX = 15   NGY = 15   NGZ = 23
  (NGX  = 48   NGY  = 48   NGZ  = 72)
  gives a total of   5175 points

 charge density for first step will be calculated from the start-wavefunctions


--------------------------------------------------------------------------------------------------------


 Maximum index for augmentation-charges          371 (set IRDMAX)


--------------------------------------------------------------------------------------------------------


 initial charge from wavefunction
 First call to EWALD:  gamma=   0.347
 Maximum number of real-space cells 3x 3x 2
 Maximum number of reciprocal cells 3x 3x 4

    FEWALD:  cpu time    0.0036: real time    0.0070


--------------------------------------- Iteration      1(   1)  ---------------------------------------


    POTLOK:  cpu time    0.0151: real time    0.0637
    CMBJ =    1.0000

    SETDIJ:  cpu time    0.4359: real time    0.4421
     EDDAV:  cpu time    1.3100: real time    1.4265
 BZINTS: Fermi energy:  4.171246; 16.000000 electrons
         Band energy:  -9.412258;  BLOECHL correction: -0.000000
       DOS:  cpu time    0.0084: real time    0.0168
    CHARGE:  cpu time    0.1639: real time    0.1639
    MIXING:  cpu time    0.0047: real time    0.0209
    --------------------------------------------
      LOOP:  cpu time    1.9380: real time    2.1340

 eigenvalue-minimisations  :  8528
 total energy-change (2. order) : 0.9747538E+04  (-0.1358082E+00)
 number of electron      15.9999995 magnetization 
 augmentation part       -1.6235160 magnetization 

 Broyden mixing:
  rms(total) = 0.15766E+00    rms(broyden)= 0.15766E+00
  rms(prec ) = 0.24091E+00
  weight for this iteration     100.00

 Free energy of the ion-electron system (eV)
  ---------------------------------------------------
  alpha Z        PSCENC =         5.24900307
  Ewald energy   TEWEN  =      -387.53429618
  -Hartree energ DENC   =       -29.73759520
  -exchange      EXHF   =         0.00000000
  -V(xc)+E(xc)   XCENC  =       152.46640514
  PAW double counting   =       540.10026049     9104.17576013
  entropy T*S    EENTRO =         0.00000000
  eigenvalues    EBANDS =        -9.41225763
  atomic energy  EATOM  =       372.23066675
  Solvation  Ediel_sol  =         0.00000000
  ---------------------------------------------------
  free energy    TOTEN  =      9747.53794656 eV

  energy without entropy =     9747.53794656  energy(sigma->0) =     9747.53794656


--------------------------------------------------------------------------------------------------------




--------------------------------------- Iteration      1(   2)  ---------------------------------------


    POTLOK:  cpu time    0.0107: real time    0.0129
    CMBJ =    1.0929

    SETDIJ:  cpu time    0.4337: real time    0.4337
     EDDAV:  cpu time    1.2556: real time    1.2550
 BZINTS: Fermi energy:  4.569697; 16.000000 electrons
         Band energy:  -2.553563;  BLOECHL correction: -0.000000
       DOS:  cpu time    0.0078: real time    0.0078
    CHARGE:  cpu time    0.1628: real time    0.1627
    MIXING:  cpu time    0.0021: real time    0.0053
    --------------------------------------------
      LOOP:  cpu time    1.8728: real time    1.8775

 eigenvalue-minimisations  :  9088
 total energy-change (2. order) : 0.1290017E+01  (-0.3624172E-01)
 number of electron      15.9999995 magnetization 
 augmentation part       -1.5766673 magnetization 

 Broyden mixing:
  rms(total) = 0.67212E-01    rms(broyden)= 0.67212E-01
  rms(prec ) = 0.10117E+00
  weight for this iteration     100.00

 eigenvalues of (default mixing * dielectric matrix)
  average eigenvalue GAMMA=   1.5307
  1.5307

 Free energy of the ion-electron system (eV)
  ---------------------------------------------------
  alpha Z        PSCENC =         5.24900307
  Ewald energy   TEWEN  =      -387.53429618
  -Hartree energ DENC   =       -31.15367226
  -exchange      EXHF   =         0.00000000
  -V(xc)+E(xc)   XCENC  =       145.94816554
  PAW double counting   =       500.60057820     9146.04108114
  entropy T*S    EENTRO =         0.00000000
  eigenvalues    EBANDS =        -2.55356283
  atomic energy  EATOM  =       372.23066675
  Solvation  Ediel_sol  =         0.00000000
  ---------------------------------------------------
  free energy    TOTEN  =      9748.82796342 eV

  energy without entropy =     9748.82796342  energy(sigma->0) =     9748.82796342


--------------------------------------------------------------------------------------------------------




--------------------------------------- Iteration      1(   3)  ---------------------------------------


    POTLOK:  cpu time    0.0096: real time    0.0101
    CMBJ =    1.1001

    SETDIJ:  cpu time    0.4387: real time    0.4387
     EDDAV:  cpu time    1.2812: real time    1.2806
 BZINTS: Fermi energy:  4.601692; 16.000000 electrons
         Band energy:  -2.116293;  BLOECHL correction: -0.000000
       DOS:  cpu time    0.0068: real time    0.0068
    CHARGE:  cpu time    0.1647: real time    0.1646
    MIXING:  cpu time    0.0006: real time    0.0005
    --------------------------------------------
      LOOP:  cpu time    1.9015: real time    1.9013

 eigenvalue-minimisations  :  9184
 total energy-change (2. order) : 0.2955681E+00  (-0.5065438E-02)
 number of electron      15.9999995 magnetization 
 augmentation part       -1.5612967 magnetization 

 Broyden mixing:
  rms(total) = 0.28815E-01    rms(broyden)= 0.28815E-01
  rms(prec ) = 0.57549E-01
  weight for this iteration     100.00

 eigenvalues of (default mixing * dielectric matrix)
  average eigenvalue GAMMA=   1.1308
  0.9190  1.3426

 Free energy of the ion-electron system (eV)
  ---------------------------------------------------
  alpha Z        PSCENC =         5.24900307
  Ewald energy   TEWEN  =      -387.53429618
  -Hartree energ DENC   =       -31.89493253
  -exchange      EXHF   =         0.00000000
  -V(xc)+E(xc)   XCENC  =       146.43091868
  PAW double counting   =       468.08874510     9178.66971926
  entropy T*S    EENTRO =         0.00000000
  eigenvalues    EBANDS =        -2.11629259
  atomic energy  EATOM  =       372.23066675
  Solvation  Ediel_sol  =         0.00000000
  ---------------------------------------------------
  free energy    TOTEN  =      9749.12353154 eV

  energy without entropy =     9749.12353154  energy(sigma->0) =     9749.12353154


--------------------------------------------------------------------------------------------------------




--------------------------------------- Iteration      1(   4)  ---------------------------------------


    POTLOK:  cpu time    0.0097: real time    0.0101
    CMBJ =    1.1057

    SETDIJ:  cpu time    0.4340: real time    0.4338
     EDDAV:  cpu time    1.2037: real time    1.2033
 BZINTS: Fermi energy:  4.637473; 16.000000 electrons
         Band energy:  -1.624320;  BLOECHL correction: -0.000000
       DOS:  cpu time    0.0079: real time    0.0079
    CHARGE:  cpu time    0.1627: real time    0.1626
    MIXING:  cpu time    0.0010: real time    0.0005
    --------------------------------------------
      LOOP:  cpu time    1.8189: real time    1.8183

 eigenvalue-minimisations  :  8568
 total energy-change (2. order) : 0.4994515E-01  (-0.8844461E-03)
 number of electron      15.9999995 magnetization 
 augmentation part       -1.5565410 magnetization 

 Broyden mixing:
  rms(total) = 0.26888E-01    rms(broyden)= 0.26888E-01
  rms(prec ) = 0.38440E-01
  weight for this iteration     100.00

 eigenvalues of (default mixing * dielectric matrix)
  average eigenvalue GAMMA=   1.4867
  1.8139  1.8139  0.8322

 Free energy of the ion-electron system (eV)
  ---------------------------------------------------
  alpha Z        PSCENC =         5.24900307
  Ewald energy   TEWEN  =      -387.53429618
  -Hartree energ DENC   =       -32.20908263
  -exchange      EXHF   =         0.00000000
  -V(xc)+E(xc)   XCENC  =       146.29101323
  PAW double counting   =       468.19078947     9178.57970311
  entropy T*S    EENTRO =         0.00000000
  eigenvalues    EBANDS =        -1.62432012
  atomic energy  EATOM  =       372.23066675
  Solvation  Ediel_sol  =         0.00000000
  ---------------------------------------------------
  free energy    TOTEN  =      9749.17347669 eV

  energy without entropy =     9749.17347669  energy(sigma->0) =     9749.17347669


--------------------------------------------------------------------------------------------------------




--------------------------------------- Iteration      1(   5)  ---------------------------------------


    POTLOK:  cpu time    0.0090: real time    0.0098
    CMBJ =    1.1085

    SETDIJ:  cpu time    0.4342: real time    0.4339
     EDDAV:  cpu time    1.3459: real time    1.3453
 BZINTS: Fermi energy:  4.640137; 16.000000 electrons
         Band energy:  -1.394426;  BLOECHL correction: -0.000000
       DOS:  cpu time    0.0070: real time    0.0070
    CHARGE:  cpu time    0.2359: real time    0.2358
    MIXING:  cpu time    0.0005: real time    0.0005
    --------------------------------------------
      LOOP:  cpu time    2.0335: real time    2.0325

 eigenvalue-minimisations  :  8760
 total energy-change (2. order) :-0.2941388E-01  (-0.5000390E-03)
 number of electron      15.9999995 magnetization 
 augmentation part       -1.5519404 magnetization 

 Broyden mixing:
  rms(total) = 0.18452E-01    rms(broyden)= 0.18452E-01
  rms(prec ) = 0.25809E-01
  weight for this iteration     100.00

 eigenvalues of (default mixing * dielectric matrix)
  average eigenvalue GAMMA=   1.5498
  2.3896  2.3896  0.8722  0.5477

 Free energy of the ion-electron system (eV)
  ---------------------------------------------------
  alpha Z        PSCENC =         5.24900307
  Ewald energy   TEWEN  =      -387.53429618
  -Hartree energ DENC   =       -32.44370202
  -exchange      EXHF   =         0.00000000
  -V(xc)+E(xc)   XCENC  =       146.36406164
  PAW double counting   =       478.13374810     9168.53900730
  entropy T*S    EENTRO =         0.00000000
  eigenvalues    EBANDS =        -1.39442584
  atomic energy  EATOM  =       372.23066675
  Solvation  Ediel_sol  =         0.00000000
  ---------------------------------------------------
  free energy    TOTEN  =      9749.14406281 eV

  energy without entropy =     9749.14406281  energy(sigma->0) =     9749.14406281


--------------------------------------------------------------------------------------------------------




--------------------------------------- Iteration      1(   6)  ---------------------------------------


    POTLOK:  cpu time    0.0096: real time    0.0099
    CMBJ =    1.1114

    SETDIJ:  cpu time    0.4342: real time    0.4340
     EDDAV:  cpu time    1.3147: real time    1.3153
 BZINTS: Fermi energy:  4.649590; 16.000000 electrons
         Band energy:  -1.228900;  BLOECHL correction: -0.000000
       DOS:  cpu time    0.0076: real time    0.0076
    CHARGE:  cpu time    0.1623: real time    0.1622
    MIXING:  cpu time    0.0005: real time    0.0005
    --------------------------------------------
      LOOP:  cpu time    1.9281: real time    1.9296

 eigenvalue-minimisations  :  9416
 total energy-change (2. order) :-0.1500680E+00  (-0.2588305E-03)
 number of electron      15.9999995 magnetization 
 augmentation part       -1.5494903 magnetization 

 Broyden mixing:
  rms(total) = 0.56645E-02    rms(broyden)= 0.56645E-02
  rms(prec ) = 0.69929E-02
  weight for this iteration     100.00

 eigenvalues of (default mixing * dielectric matrix)
  average eigenvalue GAMMA=   1.4756
  2.9493  1.7747  1.0495  1.0495  0.5551

 Free energy of the ion-electron system (eV)
  ---------------------------------------------------
  alpha Z        PSCENC =         5.24900307
  Ewald energy   TEWEN  =      -387.53429618
  -Hartree energ DENC   =       -32.63231616
  -exchange      EXHF   =         0.00000000
  -V(xc)+E(xc)   XCENC  =       146.43280676
  PAW double counting   =       496.88495608     9149.59207437
  entropy T*S    EENTRO =         0.00000000
  eigenvalues    EBANDS =        -1.22889990
  atomic energy  EATOM  =       372.23066675
  Solvation  Ediel_sol  =         0.00000000
  ---------------------------------------------------
  free energy    TOTEN  =      9748.99399478 eV

  energy without entropy =     9748.99399478  energy(sigma->0) =     9748.99399478


--------------------------------------------------------------------------------------------------------




--------------------------------------- Iteration      1(   7)  ---------------------------------------


    POTLOK:  cpu time    0.0098: real time    0.0100
    CMBJ =    1.1148

    SETDIJ:  cpu time    0.4341: real time    0.4339
     EDDAV:  cpu time    1.2258: real time    1.2252
 BZINTS: Fermi energy:  4.665722; 16.000000 electrons
         Band energy:  -1.088443;  BLOECHL correction: -0.000000
       DOS:  cpu time    0.0071: real time    0.0071
    CHARGE:  cpu time    0.1617: real time    0.1617
    MIXING:  cpu time    0.0006: real time    0.0005
    --------------------------------------------
      LOOP:  cpu time    1.8390: real time    1.8384

 eigenvalue-minimisations  :  8800
 total energy-change (2. order) :-0.9155801E-02  (-0.1135592E-03)
 number of electron      15.9999995 magnetization 
 augmentation part       -1.5480435 magnetization 

 Broyden mixing:
  rms(total) = 0.34216E-02    rms(broyden)= 0.34216E-02
  rms(prec ) = 0.72925E-02
  weight for this iteration     100.00

 eigenvalues of (default mixing * dielectric matrix)
  average eigenvalue GAMMA=   1.5126
  3.4921  1.9133  1.1691  1.1691  0.8031  0.5290

 Free energy of the ion-electron system (eV)
  ---------------------------------------------------
  alpha Z        PSCENC =         5.24900307
  Ewald energy   TEWEN  =      -387.53429618
  -Hartree energ DENC   =       -32.63953295
  -exchange      EXHF   =         0.00000000
  -V(xc)+E(xc)   XCENC  =       146.23519800
  PAW double counting   =       494.04507167     9152.48717150
  entropy T*S    EENTRO =         0.00000000
  eigenvalues    EBANDS =        -1.08844287
  atomic energy  EATOM  =       372.23066675
  Solvation  Ediel_sol  =         0.00000000
  ---------------------------------------------------
  free energy    TOTEN  =      9748.98483898 eV

  energy without entropy =     9748.98483898  energy(sigma->0) =     9748.98483898


--------------------------------------------------------------------------------------------------------




--------------------------------------- Iteration      1(   8)  ---------------------------------------


    POTLOK:  cpu time    0.0098: real time    0.0102
    CMBJ =    1.1151

    SETDIJ:  cpu time    0.4338: real time    0.4336
     EDDAV:  cpu time    1.3820: real time    1.3817
 BZINTS: Fermi energy:  4.668693; 16.000000 electrons
         Band energy:  -1.048973;  BLOECHL correction: -0.000000
       DOS:  cpu time    0.0076: real time    0.0076
    CHARGE:  cpu time    0.1621: real time    0.1621
    MIXING:  cpu time    0.0006: real time    0.0006
    --------------------------------------------
      LOOP:  cpu time    1.9959: real time    1.9957

 eigenvalue-minimisations  :  8720
 total energy-change (2. order) :-0.4295454E-01  (-0.1199801E-04)
 number of electron      15.9999995 magnetization 
 augmentation part       -1.5484100 magnetization 

 Broyden mixing:
  rms(total) = 0.16472E-02    rms(broyden)= 0.16472E-02
  rms(prec ) = 0.28290E-02
  weight for this iteration     100.00

 eigenvalues of (default mixing * dielectric matrix)
  average eigenvalue GAMMA=   1.4986
  2.7412  2.1736  2.1736  0.5351  0.9170  0.9170  1.0330

 Free energy of the ion-electron system (eV)
  ---------------------------------------------------
  alpha Z        PSCENC =         5.24900307
  Ewald energy   TEWEN  =      -387.53429618
  -Hartree energ DENC   =       -32.64332856
[...]
      6       1.8747      0.00000
      7       2.5929      0.00000
      8       2.6682      0.00000
      9       5.9735      0.00000
     10       6.6977      0.00000
     11       7.4339      0.00000
     12       7.6711      0.00000
     13       7.8101      0.00000
     14       8.1876      0.00000
     15       8.4540      0.00000
     16       9.1519      0.00000

 k-point   234 :       0.1839    0.1839    0.5000
  band No.  band energies     occupation 
      1      -5.1929      0.00000
      2      -5.0596      0.00000
      3       0.2809      0.00000
      4       0.3579      0.00000
      5       1.7696      0.00000
      6       1.9746      0.00000
      7       2.5624      0.00000
      8       2.6278      0.00000
      9       5.9774      0.00000
     10       6.7776      0.00000
     11       7.3878      0.00000
     12       7.7717      0.00000
     13       7.7841      0.00000
     14       8.0675      0.00000
     15       8.5378      0.00000
     16       9.2636      0.00000

 k-point   235 :       0.1724    0.1724    0.5000
  band No.  band energies     occupation 
      1      -5.2458      0.00000
      2      -5.1038      0.00000
      3       0.3840      0.00000
      4       0.4562      0.00000
      5       1.9034      0.00000
      6       2.0639      0.00000
      7       2.5492      0.00000
      8       2.5969      0.00000
      9       5.9836      0.00000
     10       6.8471      0.00000
     11       7.3325      0.00000
     12       7.7880      0.00000
     13       7.8635      0.00000
     14       7.9722      0.00000
     15       8.6308      0.00000
     16       9.3891      0.00000

 k-point   236 :       0.1609    0.1609    0.5000
  band No.  band energies     occupation 
      1      -5.2982      0.00000
      2      -5.1481      0.00000
      3       0.4912      0.00000
      4       0.5581      0.00000
      5       2.0298      0.00000
      6       2.1373      0.00000
      7       2.5600      0.00000
      8       2.5800      0.00000
      9       5.9937      0.00000
     10       6.9040      0.00000
     11       7.2703      0.00000
     12       7.8117      0.00000
     13       7.8260      0.00000
     14       8.0359      0.00000
     15       8.7193      0.00000
     16       9.5250      0.00000

 k-point   237 :       0.1494    0.1494    0.5000
  band No.  band energies     occupation 
      1      -5.3494      0.00000
      2      -5.1919      0.00000
      3       0.5996      0.00000
      4       0.6605      0.00000
      5       2.1439      0.00000
      6       2.1931      0.00000
      7       2.5833      0.00000
      8       2.5978      0.00000
      9       6.0095      0.00000
     10       6.9501      0.00000
     11       7.2041      0.00000
     12       7.7052      0.00000
     13       7.8947      0.00000
     14       8.1686      0.00000
     15       8.7860      0.00000
     16       9.6664      0.00000

 k-point   238 :       0.1379    0.1379    0.5000
  band No.  band energies     occupation 
      1      -5.3988      0.00000
      2      -5.2347      0.00000
      3       0.7059      0.00000
      4       0.7596      0.00000
      5       2.2380      0.00000
      6       2.2407      0.00000
      7       2.6129      0.00000
      8       2.6582      0.00000
      9       6.0329      0.00000
     10       6.9896      0.00000
     11       7.1370      0.00000
     12       7.5963      0.00000
     13       7.9838      0.00000
     14       8.3154      0.00000
     15       8.8075      0.00000
     16       9.7840      0.00000

 k-point   239 :       0.1264    0.1264    0.5000
  band No.  band energies     occupation 
      1      -5.4459      0.00000
      2      -5.2758      0.00000
      3       0.8062      0.00000
      4       0.8516      0.00000
      5       2.2833      0.00000
      6       2.3203      0.00000
      7       2.6705      0.00000
      8       2.7318      0.00000
      9       6.0660      0.00000
     10       7.0194      0.00000
     11       7.0795      0.00000
     12       7.4870      0.00000
     13       8.0762      0.00000
     14       8.4698      0.00000
     15       8.7651      0.00000
     16       9.6170      0.00000

 k-point   240 :       0.1149    0.1149    0.5000
  band No.  band energies     occupation 
      1      -5.4903      0.00000
      2      -5.3147      0.00000
      3       0.8969      0.00000
      4       0.9325      0.00000
      5       2.3391      0.00000
      6       2.3912      0.00000
      7       2.7484      0.00000
      8       2.8102      0.00000
      9       6.1106      0.00000
     10       6.9848      0.00000
     11       7.0918      0.00000
     12       7.3760      0.00000
     13       8.1364      0.00000
     14       8.6234      0.00000
     15       8.6825      0.00000
     16       9.3346      0.00000

 k-point   241 :       0.1034    0.1034    0.5000
  band No.  band energies     occupation 
      1      -5.5316      0.00000
      2      -5.3512      0.00000
      3       0.9750      0.00000
      4       0.9997      0.00000
      5       2.4113      0.00000
      6       2.4654      0.00000
      7       2.8349      0.00000
      8       2.8877      0.00000
      9       6.1680      0.00000
     10       6.9193      0.00000
     11       7.1435      0.00000
     12       7.2617      0.00000
     13       8.0976      0.00000
     14       8.6467      0.00000
     15       8.7424      0.00000
     16       9.1030      0.00000

 k-point   242 :       0.0920    0.0920    0.5000
  band No.  band energies     occupation 
      1      -5.5694      0.00000
      2      -5.3848      0.00000
      3       1.0387      0.00000
      4       1.0520      0.00000
      5       2.5020      0.00000
      6       2.5504      0.00000
      7       2.9211      0.00000
      8       2.9611      0.00000
      9       6.2390      0.00000
     10       6.8495      0.00000
     11       7.1421      0.00000
     12       7.2084      0.00000
     13       7.9452      0.00000
     14       8.6839      0.00000
     15       8.6973      0.00000
     16       9.0658      0.00000

 k-point   243 :       0.0805    0.0805    0.5000
  band No.  band energies     occupation 
      1      -5.6034      0.00000
      2      -5.4151      0.00000
      3       1.0879      0.00000
      4       1.0902      0.00000
      5       2.6093      0.00000
      6       2.6483      0.00000
      7       3.0015      0.00000
      8       3.0281      0.00000
      9       6.3232      0.00000
     10       6.7752      0.00000
     11       7.0166      0.00000
     12       7.2849      0.00000
     13       7.7471      0.00000
     14       8.4982      0.00000
     15       8.7815      0.00000
     16       9.1482      0.00000

 k-point   244 :       0.0690    0.0690    0.5000
  band No.  band energies     occupation 
      1      -5.6333      0.00000
      2      -5.4419      0.00000
      3       1.1165      0.00000
      4       1.1239      0.00000
      5       2.7287      0.00000
      6       2.7568      0.00000
      7       3.0732      0.00000
      8       3.0874      0.00000
      9       6.4173      0.00000
     10       6.6931      0.00000
     11       6.8879      0.00000
     12       7.3701      0.00000
     13       7.5521      0.00000
     14       8.3192      0.00000
     15       8.8591      0.00000
     16       9.1533      0.00000

 k-point   245 :       0.0575    0.0575    0.5000
  band No.  band energies     occupation 
      1      -5.6590      0.00000
      2      -5.4650      0.00000
      3       1.1334      0.00000
      4       1.1490      0.00000
      5       2.8538      0.00000
      6       2.8709      0.00000
      7       3.1345      0.00000
      8       3.1382      0.00000
      9       6.5079      0.00000
     10       6.5997      0.00000
     11       6.7708      0.00000
     12       7.3669      0.00000
     13       7.4791      0.00000
     14       8.1693      0.00000
     15       8.9094      0.00000
     16       9.0337      0.00000

 k-point   246 :       0.0460    0.0460    0.5000
  band No.  band energies     occupation 
      1      -5.6802      0.00000
      2      -5.4842      0.00000
      3       1.1437      0.00000
      4       1.1656      0.00000
      5       2.9768      0.00000
      6       2.9834      0.00000
      7       3.1801      0.00000
      8       3.1845      0.00000
      9       6.4956      0.00000
     10       6.5245      0.00000
     11       6.7386      0.00000
     12       7.2361      0.00000
     13       7.5761      0.00000
     14       8.0515      0.00000
     15       8.8555      0.00000
     16       8.9230      0.00000

 k-point   247 :       0.0345    0.0345    0.5000
  band No.  band energies     occupation 
      1      -5.6969      0.00000
      2      -5.4992      0.00000
      3       1.1495      0.00000
      4       1.1762      0.00000
      5       3.0858      0.00000
      6       3.0883      0.00000
      7       3.2129      0.00000
      8       3.2230      0.00000
      9       6.3891      0.00000
     10       6.4383      0.00000
     11       6.8229      0.00000
     12       7.1403      0.00000
     13       7.6768      0.00000
     14       7.9641      0.00000
     15       8.6720      0.00000
     16       8.9020      0.00000

 k-point   248 :       0.0230    0.0230    0.5000
  band No.  band energies     occupation 
      1      -5.7089      0.00000
      2      -5.5100      0.00000
      3       1.1526      0.00000
      4       1.1825      0.00000
      5       3.1693      0.00000
      6       3.1781      0.00000
      7       3.2369      0.00000
      8       3.2496      0.00000
      9       6.2955      0.00000
     10       6.3479      0.00000
     11       6.9245      0.00000
     12       7.0784      0.00000
     13       7.7673      0.00000
     14       7.9042      0.00000
     15       8.5117      0.00000
     16       8.8601      0.00000

 k-point   249 :       0.0115    0.0115    0.5000
  band No.  band energies     occupation 
      1      -5.7161      0.00000
      2      -5.5166      0.00000
      3       1.1540      0.00000
      4       1.1858      0.00000
      5       3.2257      0.00000
      6       3.2338      0.00000
      7       3.2545      0.00000
      8       3.2638      0.00000
      9       6.2312      0.00000
     10       6.2859      0.00000
     11       7.0031      0.00000
     12       7.0442      0.00000
     13       7.8331      0.00000
     14       7.8692      0.00000
     15       8.3990      0.00000
     16       8.8195      0.00000

 k-point   250 :       0.0000    0.0000    0.5000
  band No.  band energies     occupation 
      1      -5.7185      0.00000
      2      -5.5187      0.00000
      3       1.1543      0.00000
      4       1.1868      0.00000
      5       3.2475      0.00000
      6       3.2475      0.00000
      7       3.2662      0.00000
      8       3.2663      0.00000
      9       6.2083      0.00000
     10       6.2641      0.00000
     11       7.0332      0.00000
     12       7.0334      0.00000
     13       7.8576      0.00000
     14       7.8577      0.00000
     15       8.3576      0.00000
     16       8.8026      0.00000


--------------------------------------------------------------------------------------------------------


 soft charge-density along one line, spin component           1
         0         1         2         3         4         5         6         7         8         9
 total charge-density along one line
 
 pseudopotential strength for first ion, spin component:           1
  2.604   8.232  -0.000  -0.000   0.000  -0.000  -0.000   0.000
  8.232  25.710  -0.000  -0.000   0.000  -0.000  -0.000   0.000
 -0.000  -0.000   6.254  -0.000   0.000   9.088  -0.000   0.000
 -0.000  -0.000  -0.000   6.254   0.000  -0.000   9.089   0.000
  0.000   0.000   0.000   0.000   6.254   0.000   0.000   9.088
 -0.000  -0.000   9.088  -0.000   0.000  12.175  -0.000   0.000
 -0.000  -0.000  -0.000   9.089   0.000  -0.000  12.177   0.000
  0.000   0.000   0.000   0.000   9.088   0.000   0.000  12.175
  0.000   0.000   0.000  -0.000   0.000   0.000  -0.000   0.000
 -0.000  -0.000  -0.000  -0.000  -0.000  -0.000  -0.000  -0.000
  0.000   0.001   0.000  -0.000  -0.000   0.000  -0.000  -0.000
  0.000   0.000  -0.000   0.000  -0.000  -0.000   0.000  -0.000
 -0.000  -0.000   0.000  -0.000  -0.000   0.000  -0.000  -0.000
 total augmentation occupancy for first ion, spin component:           1
  0.594   0.021   0.000   0.000   0.000   0.000   0.000   0.000   0.000  -0.000  -0.004   0.000   0.000
  0.021   0.001   0.000   0.000   0.000   0.000   0.000   0.000   0.000   0.000  -0.000  -0.000   0.000
  0.000   0.000   0.057   0.000   0.000  -0.006   0.000   0.000   0.000   0.000   0.000   0.000   0.000
  0.000   0.000   0.000   0.055   0.000   0.000  -0.005   0.000   0.000   0.000   0.000   0.000   0.000
  0.000   0.000   0.000   0.000   0.057   0.000   0.000  -0.006   0.000   0.000   0.000   0.000   0.000
  0.000   0.000  -0.006   0.000   0.000   0.001   0.000   0.000   0.000   0.000   0.000   0.000   0.000
  0.000   0.000   0.000  -0.005   0.000   0.000   0.001   0.000   0.000   0.000   0.000   0.000   0.000
  0.000   0.000   0.000   0.000  -0.006   0.000   0.000   0.001   0.000   0.000   0.000   0.000   0.000
  0.000   0.000   0.000   0.000   0.000   0.000   0.000   0.000   0.006   0.000   0.000  -0.005   0.000
  0.000  -0.000   0.000   0.000   0.000   0.000   0.000   0.000   0.000   0.009   0.000   0.000  -0.005
 -0.004  -0.000   0.000   0.000   0.000   0.000   0.000   0.000   0.000   0.000   0.002   0.000  -0.000
  0.000   0.000   0.000   0.000   0.000   0.000   0.000   0.000  -0.005   0.000   0.000   0.009   0.000
  0.000   0.000   0.000   0.000   0.000   0.000   0.000   0.000   0.000  -0.005  -0.000   0.000   0.006


------------------------ aborting loop because EDIFF is reached ----------------------------------------


    CHARGE:  cpu time    0.0079: real time    0.0079
    FORLOC:  cpu time    0.0004: real time    0.0043
    FORNL :  cpu time    0.0911: real time    0.1030
    STRESS:  cpu time    0.3888: real time    0.4015
    FORCOR:  cpu time    0.0047: real time    0.0104
    FORHAR:  cpu time    0.0025: real time    0.0066
    MIXING:  cpu time    0.0029: real time    0.0041
    OFIELD:  cpu time    0.0010: real time    0.0051

  FORCE on cell =-STRESS in cart. coord.  units (eV):
  Direction    XX          YY          ZZ          XY          YZ          ZX
  --------------------------------------------------------------------------------------
  Alpha Z     5.24900     5.24900     5.24900
  Ewald    -129.14694  -129.14692  -129.24091    -0.00001     0.00000     0.00000
  Hartree    10.38170    10.38170    11.86025     0.00000     0.00000     0.00000
  E(xc)    -283.52977  -283.52977  -283.19474     0.00000    -0.00000    -0.00000
  Local     -73.61958   -73.61962   -74.61993    -0.00002    -0.00000    -0.00000
  n-local   152.83821   155.55913   152.32002    -3.38203    -0.37876    -0.45063
  augment   -31.25473   -31.25471   -30.87451     0.00002     0.00000    -0.00000
  Kinetic    87.42077    91.29477    90.73550    -3.03089     0.17767    -0.34824
  Fock        0.00000     0.00000     0.00000     0.00000     0.00000     0.00000
  -------------------------------------------------------------------------------------
  Total    -258.36388  -258.36388  -257.76531    -0.00000     0.00000     0.00000
  in kB   -3109.77977 -3109.77977 -3102.57509    -0.00000     0.00000     0.00000
  external pressure =    -3107.38 kB  Pullay stress =        0.00 kB


 VOLUME and BASIS-vectors are now :
 -----------------------------------------------------------------------------
  energy-cutoff  :      400.00
  volume of cell :      133.11
      direct lattice vectors                 reciprocal lattice vectors
     4.597849902  0.000000000  0.000000000     0.217492963  0.125569621  0.000000000
    -2.298924951  3.981854818  0.000000000     0.000000000  0.251139242  0.000000000
     0.000000000  0.000000000  7.270638344     0.000000000  0.000000000  0.137539505

  length of vectors
     4.597849902  4.597849902  7.270638344     0.251139242  0.251139242  0.137539505


 FORCES acting on ions
    electron-ion (+dipol)            ewald-force                    non-local-force                 convergence-correction
 -----------------------------------------------------------------------------------------------
   -.128E-06 -.367E-13 0.573E-07   -.902E-06 -.217E-12 0.389E-06   0.132E-22 0.000E+00 0.000E+00   -.117E-13 -.131E-15 -.657E-13
   -.253E-06 0.820E-06 0.221E+01   -.167E-05 -.208E-05 -.230E+01   -.312E-16 0.000E+00 0.147E+00   0.197E-12 -.149E-12 -.252E-04
   -.154E-05 -.820E-06 -.221E+01   0.175E-05 0.208E-05 0.230E+01   0.000E+00 0.000E+00 -.147E+00   -.936E-13 0.149E-12 0.252E-04
   0.289E-06 -.138E-04 -.264E+01   -.171E-05 -.257E-05 0.752E+00   -.694E-17 0.278E-16 0.231E+01   -.150E-13 0.633E-13 0.981E-04
   0.232E-04 0.138E-04 0.264E+01   0.252E-05 0.257E-05 -.752E+00   0.208E-16 -.278E-16 -.231E+01   -.110E-13 -.636E-13 -.981E-04
 -----------------------------------------------------------------------------------------------
   0.216E-04 0.332E-11 -.378E-04   0.260E-15 0.310E-15 0.355E-14   -.173E-16 0.000E+00 -.444E-15   0.654E-13 -.173E-16 0.327E-11
 
 
 POSITION                                       TOTAL-FORCE (eV/Angst)
 -----------------------------------------------------------------------------------
      0.00000      0.00000      0.00000         0.000000      0.000000      0.000000
     -0.00000      2.65457      4.59531         0.000000      0.000000      0.051737
      2.29892      1.32728      2.67533         0.000000      0.000000     -0.051737
     -0.00000      2.65457      1.63863        -0.000000     -0.000000      0.424406
      2.29892      1.32728      5.63201        -0.000000      0.000000     -0.424406
 -----------------------------------------------------------------------------------
    total drift:                                0.000022      0.000000     -0.000038


--------------------------------------------------------------------------------------------------------



  FREE ENERGIE OF THE ION-ELECTRON SYSTEM (eV)
  ---------------------------------------------------
  free  energy   TOTEN  =      9748.94653290 eV

  energy  without entropy=     9748.94653290  energy(sigma->0) =     9748.94653290
 


--------------------------------------------------------------------------------------------------------


    CMBJ =    1.1155

    POTLOK:  cpu time    0.4462: real time    0.4487


--------------------------------------------------------------------------------------------------------


 writing wavefunctions
     LOOP+:  cpu time   44.7669: real time   50.2810
    4ORBIT:  cpu time    0.0000: real time    0.0000
 BZINTS: Fermi energy:  4.671423; 16.000000 electrons
         Band energy:  -1.030872;  BLOECHL correction: -0.000000

 total amount of memory used by VASP MPI-rank0    46026. kBytes
=======================================================================

   base      :      30000. kBytes
   nonl-proj :      13332. kBytes
   fftplans  :        208. kBytes
   grid      :        302. kBytes
   one-center:          8. kBytes
   wavefun   :       2176. kBytes
 
  
  
 General timing and accounting informations for this job:
 ========================================================
  
                  Total CPU time used (sec):       49.712
                            User time (sec):       45.977
                          System time (sec):        3.735
                         Elapsed time (sec):       56.034
  
                   Maximum memory used (kb):       95692.
                   Average memory used (kb):           0.
  
                          Minor page faults:        37601
                          Major page faults:            0
                 Voluntary context switches:         5767
